
     Program PWSCF v.5.0.2 (svn rev. 9656) starts on 17Dec2013 at 14:57:45 

     This program is part of the open-source Quantum ESPRESSO suite
     for quantum simulation of materials; please cite
         "P. Giannozzi et al., J. Phys.:Condens. Matter 21 395502 (2009);
          URL http://www.quantum-espresso.org", 
     in publications or presentations arising from this work. More details at
     http://www.quantum-espresso.org/quote.php

     Parallel version (MPI & OpenMP), running on      32 processor cores
     Number of MPI processes:                 4
     Threads/MPI process:                     8
     K-points division:     npool     =       4

     Current dimensions of program PWSCF are:
     Max number of different atomic species (ntypx) = 10
     Max number of k-points (npk) =  40000
     Max angular momentum in pseudopotentials (lmaxx) =  3
     Reading input from STO.in

     Subspace diagonalization in iterative solution of the eigenvalue problem:
     a serial algorithm will be used

     Message from routine setup:
     Dynamics, you should have no symmetries
 
     G-vector sticks info
     --------------------
     sticks:   dense  smooth     PW     G-vecs:    dense   smooth      PW
     Sum         885     709    213                19837    14147    2325
 

     Title: 
     STO_PBE_from_GBRV                                                          


     bravais-lattice index     =            1
     lattice parameter (alat)  =       7.4531  a.u.
     unit-cell volume          =     414.0067 (a.u.)^3
     number of atoms/cell      =            5
     number of atomic types    =            3
     number of electrons       =        40.00
     number of Kohn-Sham states=           24
     kinetic-energy cutoff     =      40.0000  Ry
     charge density cutoff     =     200.0000  Ry
     convergence threshold     =      2.0E-05
     mixing beta               =       0.1500
     number of iterations used =            8  local-TF  mixing
     Exchange-correlation      = SLA  PW   PBE  PBE ( 1 4 3 4 0)
     EXX-fraction              =        0.00
     nstep                     =          100


     celldm(1)=   7.453080  celldm(2)=   0.000000  celldm(3)=   0.000000
     celldm(4)=   0.000000  celldm(5)=   0.000000  celldm(6)=   0.000000

     crystal axes: (cart. coord. in units of alat)
               a(1) = (   1.000000   0.000000   0.000000 )  
               a(2) = (   0.000000   1.000000   0.000000 )  
               a(3) = (   0.000000   0.000000   1.000000 )  

     reciprocal axes: (cart. coord. in units 2 pi/alat)
               b(1) = (  1.000000  0.000000  0.000000 )  
               b(2) = (  0.000000  1.000000  0.000000 )  
               b(3) = (  0.000000  0.000000  1.000000 )  


     PseudoPot. # 1 for O  read from file:
     ../pbe/o_pbe_v1.01.uspp.F.UPF
     MD5 check sum: 2bcb18d16ea4b960afae9ec6d52f22d2
     Pseudo is Ultrasoft + core correction, Zval =  6.0
     Generated by new atomic code, or converted to UPF format
     Using radial grid of  737 points,  5 beta functions with: 
                l(1) =   0
                l(2) =   0
                l(3) =   1
                l(4) =   1
                l(5) =   2
     Q(r) pseudized with  8 coefficients,  rinner =    0.900   0.900   0.900
                                                       0.900   0.900

     PseudoPot. # 2 for Sr read from file:
     ../pbe/sr_pbe_v1.uspp.F.UPF
     MD5 check sum: 6b418c05fbe9db5448babca5e47b7a5b
     Pseudo is Ultrasoft + core correction, Zval = 10.0
     Generated by new atomic code, or converted to UPF format
     Using radial grid of  883 points,  6 beta functions with: 
                l(1) =   0
                l(2) =   0
                l(3) =   1
                l(4) =   1
                l(5) =   2
                l(6) =   2
     Q(r) pseudized with  6 coefficients,  rinner =    1.400   1.400   1.400
                                                       1.400   1.400

     PseudoPot. # 3 for Ti read from file:
     ../pbe/ti_pbe_v1.uspp.F.UPF
     MD5 check sum: bcc8f6961b3b91f0cac3ca967d22d0fb
     Pseudo is Ultrasoft + core correction, Zval = 12.0
     Generated by new atomic code, or converted to UPF format
     Using radial grid of  851 points,  6 beta functions with: 
                l(1) =   0
                l(2) =   0
                l(3) =   1
                l(4) =   1
                l(5) =   2
                l(6) =   2
     Q(r) pseudized with  6 coefficients,  rinner =    1.000   1.000   1.000
                                                       1.000   1.000

     atomic species   valence    mass     pseudopotential
        O              6.00    15.99940     O ( 1.00)
        Sr            10.00    87.62000     Sr( 1.00)
        Ti            12.00    47.88000     Ti( 1.00)

      cell mass =  13.94419 AMU 

     48 Sym. Ops., with inversion, found



   Cartesian axes

     site n.     atom                  positions (alat units)
         1           Sr  tau(   1) = (   0.5000000   0.5000000   0.5000000  )
         2           Ti  tau(   2) = (   0.0000000   0.0000000   0.0000000  )
         3           O   tau(   3) = (   0.5000000   0.0000000   0.0000000  )
         4           O   tau(   4) = (   0.0000000   0.5000000   0.0000000  )
         5           O   tau(   5) = (   0.0000000   0.0000000   0.5000000  )

     number of k points=    10  gaussian smearing, width (Ry)=  0.0100
                       cart. coord. in units 2pi/alat
        k(    1) = (   0.0833333   0.0833333   0.0833333), wk =   0.0740741
        k(    2) = (   0.0833333   0.0833333   0.2500000), wk =   0.2222222
        k(    3) = (   0.0833333   0.0833333   0.4166667), wk =   0.2222222
        k(    4) = (   0.0833333   0.2500000   0.2500000), wk =   0.2222222
        k(    5) = (   0.0833333   0.2500000   0.4166667), wk =   0.4444444
        k(    6) = (   0.0833333   0.4166667   0.4166667), wk =   0.2222222
        k(    7) = (   0.2500000   0.2500000   0.2500000), wk =   0.0740741
        k(    8) = (   0.2500000   0.2500000   0.4166667), wk =   0.2222222
        k(    9) = (   0.2500000   0.4166667   0.4166667), wk =   0.2222222
        k(   10) = (   0.4166667   0.4166667   0.4166667), wk =   0.0740741

     Dense  grid:    19837 G-vectors     FFT dimensions: (  36,  36,  36)

     Smooth grid:    14147 G-vectors     FFT dimensions: (  32,  32,  32)

     Largest allocated arrays     est. size (Mb)     dimensions
        Kohn-Sham Wavefunctions         0.66 Mb     (   1791,   24)
        NL pseudopotentials             2.05 Mb     (   1791,   75)
        Each V/rho on FFT grid          0.71 Mb     (  46656)
        Each G-vector array             0.15 Mb     (  19837)
        G-vector shells                 0.15 Mb     (  19837)
     Largest temporary arrays     est. size (Mb)     dimensions
        Auxiliary wavefunctions         2.62 Mb     (   1791,   96)
        Each subspace H/S matrix        0.14 Mb     (  96,  96)
        Each <psi_i|beta_j> matrix      0.03 Mb     (     75,   24)
        Arrays for rho mixing           5.70 Mb     (  46656,   8)
     writing wfc files to a dedicated directory

     Check: negative/imaginary core charge=   -0.000038    0.000000

     Initial potential from superposition of free atoms
     Check: negative starting charge=   -0.071177

     starting charge   38.96630, renormalised to   40.00000

     negative rho (up, down):  0.731E-01 0.000E+00
     Starting wfc are   35 randomized atomic wfcs

     total cpu time spent up to now is        6.8 secs

     per-process dynamical memory:    24.3 Mb

     Self-consistent Calculation

     iteration #  1     ecut=    40.00 Ry     beta=0.15
     Davidson diagonalization with overlap
     ethr =  1.00E-02,  avg # of iterations =  1.9

     negative rho (up, down):  0.724E-01 0.000E+00

     total cpu time spent up to now is       11.5 secs

     total energy              =    -286.13309526 Ry
     Harris-Foulkes estimate   =    -286.22345168 Ry
     estimated scf accuracy    <       0.93352902 Ry

     iteration #  2     ecut=    40.00 Ry     beta=0.15
     Davidson diagonalization with overlap
     ethr =  2.33E-03,  avg # of iterations =  1.0

     negative rho (up, down):  0.693E-01 0.000E+00

     total cpu time spent up to now is       15.5 secs

     total energy              =    -285.89046284 Ry
     Harris-Foulkes estimate   =    -286.15130129 Ry
     estimated scf accuracy    <       0.64449148 Ry

     iteration #  3     ecut=    40.00 Ry     beta=0.15
     Davidson diagonalization with overlap
     ethr =  1.61E-03,  avg # of iterations =  2.9

     negative rho (up, down):  0.695E-01 0.000E+00

     total cpu time spent up to now is       20.4 secs

     total energy              =    -286.01966845 Ry
     Harris-Foulkes estimate   =    -286.03128263 Ry
     estimated scf accuracy    <       0.23039282 Ry

     iteration #  4     ecut=    40.00 Ry     beta=0.15
     Davidson diagonalization with overlap
     ethr =  5.76E-04,  avg # of iterations =  1.0

     negative rho (up, down):  0.675E-01 0.000E+00

     total cpu time spent up to now is       24.7 secs

     total energy              =    -285.98163174 Ry
     Harris-Foulkes estimate   =    -286.02331879 Ry
     estimated scf accuracy    <       0.15592866 Ry

     iteration #  5     ecut=    40.00 Ry     beta=0.15
     Davidson diagonalization with overlap
     ethr =  3.90E-04,  avg # of iterations =  1.8

     negative rho (up, down):  0.676E-01 0.000E+00

     total cpu time spent up to now is       30.0 secs

     total energy              =    -285.94526821 Ry
     Harris-Foulkes estimate   =    -285.99095005 Ry
     estimated scf accuracy    <       0.13087625 Ry

     iteration #  6     ecut=    40.00 Ry     beta=0.15
     Davidson diagonalization with overlap
     ethr =  3.27E-04,  avg # of iterations =  2.5

     negative rho (up, down):  0.668E-01 0.000E+00

     total cpu time spent up to now is       34.8 secs

     total energy              =    -285.96450028 Ry
     Harris-Foulkes estimate   =    -285.96445941 Ry
     estimated scf accuracy    <       0.00378370 Ry

     iteration #  7     ecut=    40.00 Ry     beta=0.15
     Davidson diagonalization with overlap
     ethr =  9.46E-06,  avg # of iterations =  3.5

     negative rho (up, down):  0.715E-01 0.000E+00

     total cpu time spent up to now is       40.0 secs

     total energy              =    -285.96482884 Ry
     Harris-Foulkes estimate   =    -285.96568909 Ry
     estimated scf accuracy    <       0.00578377 Ry

     iteration #  8     ecut=    40.00 Ry     beta=0.15
     Davidson diagonalization with overlap
     ethr =  9.46E-06,  avg # of iterations =  3.2

     negative rho (up, down):  0.746E-01 0.000E+00

     total cpu time spent up to now is       45.2 secs

     total energy              =    -285.96638546 Ry
     Harris-Foulkes estimate   =    -285.96595694 Ry
     estimated scf accuracy    <       0.00086887 Ry

     iteration #  9     ecut=    40.00 Ry     beta=0.15
     Davidson diagonalization with overlap
     ethr =  2.17E-06,  avg # of iterations =  2.6

     negative rho (up, down):  0.743E-01 0.000E+00

     total cpu time spent up to now is       50.2 secs

     total energy              =    -285.96611584 Ry
     Harris-Foulkes estimate   =    -285.96644992 Ry
     estimated scf accuracy    <       0.00110911 Ry

     iteration # 10     ecut=    40.00 Ry     beta=0.15
     Davidson diagonalization with overlap
     ethr =  2.17E-06,  avg # of iterations =  1.8

     negative rho (up, down):  0.740E-01 0.000E+00

     total cpu time spent up to now is       54.9 secs

          k = 0.0833 0.0833 0.0833     band energies (ev):

   -46.8277 -23.2368 -23.0776 -23.0776 -23.0664  -7.6099  -6.6607  -6.6607
    -5.1754  -5.1754  -5.1105   6.6726   6.8566   6.8566   8.2001   8.2001
     8.6260   8.8695   9.1110   9.1110  11.7827  11.8398  11.8398  14.1822

          k = 0.0833 0.0833 0.2500     band energies (ev):

   -46.8274 -23.2505 -23.0836 -23.0764 -23.0626  -7.6376  -6.6343  -6.6313
    -5.1782  -5.1246  -4.8893   6.1588   6.7429   6.8496   7.5826   7.5832
     8.2475   8.5023   8.8121   8.9459  11.8732  12.5693  12.5736  14.1838

          k = 0.0833 0.0833 0.4167     band energies (ev):

   -46.8271 -23.2675 -23.0781 -23.0752 -23.0666  -7.7362  -6.6011  -6.4747
    -5.1816  -5.0877  -4.7003   5.5594   6.6686   6.8839   6.9201   7.1339
     7.9861   8.2471   8.6415   8.8310  11.9338  13.2565  13.2638  14.1799

          k = 0.0833 0.2500 0.2500     band energies (ev):

   -46.8271 -23.2436 -23.1022 -23.0779 -23.0650  -7.5176  -6.7364  -6.5695
    -5.1664  -5.0076  -4.8588   5.9159   6.4028   6.7342   6.8036   7.4126
     7.8964   8.5090   8.6150   8.9726  12.5460  12.6691  12.9047  14.6877

          k = 0.0833 0.2500 0.4167     band energies (ev):

   -46.8268 -23.2420 -23.1045 -23.0840 -23.0735  -7.4834  -6.6709  -6.5491
    -5.1753  -4.9418  -4.7806   5.5128   5.9290   6.3438   6.8199   7.0275
     7.9323   8.2302   8.4900   9.0707  12.6441  13.2795  13.4013  14.7866

          k = 0.0833 0.4167 0.4167     band energies (ev):

   -46.8266 -23.2086 -23.1266 -23.1122 -23.0730  -7.1507  -6.7987  -6.6373
    -5.1476  -4.8464  -4.8189   5.3332   5.4401   5.7302   6.8056   6.8937
     7.7876   8.2744   8.3237   9.5074  13.2819  13.3102  13.7011  14.9805

          k = 0.2500 0.2500 0.2500     band energies (ev):

   -46.8269 -23.2311 -23.1009 -23.1009 -23.0719  -7.3486  -6.6309  -6.6309
    -5.1316  -5.1316  -4.8154   5.7492   6.4088   6.4088   6.8224   6.8224
     6.9375   8.7868   8.7868   9.0908  12.9411  13.0022  13.0022  15.9355

          k = 0.2500 0.2500 0.4167     band energies (ev):

   -46.8265 -23.2218 -23.1080 -23.0996 -23.0909  -7.2338  -6.6284  -6.5039
    -5.2773  -4.9964  -4.8655   5.4943   5.9301   6.2980   6.3799   6.5109
     7.0015   8.7764   8.8953   9.1855  13.0546  13.4601  13.4829  15.9022

          k = 0.2500 0.4167 0.4167     band energies (ev):

   -46.8263 -23.1965 -23.1252 -23.1165 -23.0982  -6.9061  -6.6346  -6.4983
    -5.2967  -5.0734  -4.9803   5.3837   5.7060   5.7391   6.3191   6.4055
     6.6383   8.9768   9.0240   9.5382  13.5307  13.5489  13.7846  16.2432

          k = 0.4167 0.4167 0.4167     band energies (ev):

   -46.8260 -23.1827 -23.1237 -23.1237 -23.1218  -6.5916  -6.4060  -6.4060
    -5.3641  -5.3641  -5.2214   5.2862   5.7499   5.7499   5.9724   6.1049
     6.1049   9.4942   9.4942   9.6036  13.8568  13.8756  13.8756  16.7727

     the Fermi energy is    11.0312 ev

     total energy              =    -285.96609837 Ry
     Harris-Foulkes estimate   =    -285.96621788 Ry
     estimated scf accuracy    <       0.00019684 Ry

     iteration # 11     ecut=    40.00 Ry     beta=0.15
     Davidson diagonalization with overlap
     ethr =  4.92E-07,  avg # of iterations =  3.1

     negative rho (up, down):  0.739E-01 0.000E+00

     total cpu time spent up to now is       60.0 secs

     total energy              =    -285.96618042 Ry
     Harris-Foulkes estimate   =    -285.96617022 Ry
     estimated scf accuracy    <       0.00002113 Ry

     iteration # 12     ecut=    40.00 Ry     beta=0.15
     Davidson diagonalization with overlap
     ethr =  5.28E-08,  avg # of iterations =  2.5

     negative rho (up, down):  0.736E-01 0.000E+00

     total cpu time spent up to now is       65.1 secs

     total energy              =    -285.96616646 Ry
     Harris-Foulkes estimate   =    -285.96618272 Ry
     estimated scf accuracy    <       0.00004990 Ry

     iteration # 13     ecut=    40.00 Ry     beta=0.15
     Davidson diagonalization with overlap
     ethr =  5.28E-08,  avg # of iterations =  3.0

     negative rho (up, down):  0.736E-01 0.000E+00

     total cpu time spent up to now is       69.4 secs

     End of self-consistent calculation

          k = 0.0833 0.0833 0.0833 (  1791 PWs)   bands (ev):

   -46.8779 -23.1822 -23.1265 -23.1265 -23.0945  -7.6380  -6.6923  -6.6923
    -5.1129  -5.1129  -5.0483   6.6451   6.8275   6.8275   8.1725   8.1725
     8.5972   8.8353   9.0771   9.0771  11.7435  11.8004  11.8004  14.1360

          k = 0.0833 0.0833 0.2500 (  1780 PWs)   bands (ev):

   -46.8775 -23.2165 -23.1289 -23.1253 -23.0734  -7.6597  -6.6640  -6.6620
    -5.1145  -5.0637  -4.8356   6.1274   6.7137   6.8209   7.5548   7.5572
     8.2189   8.4747   8.7785   8.9123  11.8330  12.5286  12.5332  14.1374

          k = 0.0833 0.0833 0.4167 (  1769 PWs)   bands (ev):

   -46.8772 -23.2482 -23.1248 -23.1241 -23.0613  -7.7525  -6.6349  -6.5026
    -5.1168  -5.0275  -4.6518   5.5229   6.6425   6.8554   6.8936   7.1088
     7.9598   8.2214   8.6077   8.7976  11.8924  13.2139  13.2213  14.1334

          k = 0.0833 0.2500 0.2500 (  1772 PWs)   bands (ev):

   -46.8772 -23.2123 -23.1509 -23.1251 -23.0712  -7.5383  -6.7566  -6.6019
    -5.1028  -4.9569  -4.8047   5.8881   6.3672   6.7052   6.7765   7.3865
     7.8671   8.4810   8.5821   8.9434  12.5050  12.6275  12.8654  14.6418

          k = 0.0833 0.2500 0.4167 (  1773 PWs)   bands (ev):

   -46.8770 -23.2232 -23.1514 -23.1232 -23.0769  -7.5005  -6.6901  -6.5799
    -5.1108  -4.8922  -4.7330   5.4779   5.9043   6.3100   6.7927   7.0020
     7.9024   8.2027   8.4596   9.0418  12.6021  13.2366  13.3607  14.7408

          k = 0.0833 0.4167 0.4167 (  1752 PWs)   bands (ev):

   -46.8767 -23.1914 -23.1752 -23.1220 -23.1024  -7.1720  -6.8102  -6.6618
    -5.0823  -4.8047  -4.7753   5.3051   5.4116   5.6912   6.7803   6.8689
     7.7523   8.2479   8.2982   9.4771  13.2389  13.2670  13.6606  14.9357

          k = 0.2500 0.2500 0.2500 (  1791 PWs)   bands (ev):

   -46.8770 -23.2009 -23.1496 -23.1496 -23.0753  -7.3679  -6.6555  -6.6555
    -5.0766  -5.0766  -4.7628   5.7230   6.3742   6.3742   6.7967   6.7967
     6.9056   8.7583   8.7583   9.0608  12.8995  12.9620  12.9620  15.8892

          k = 0.2500 0.2500 0.4167 (  1765 PWs)   bands (ev):

   -46.8767 -23.2045 -23.1513 -23.1483 -23.0867  -7.2510  -6.6468  -6.5360
    -5.2152  -4.9477  -4.8161   5.4604   5.9039   6.2684   6.3547   6.4767
     6.9720   8.7480   8.8676   9.1558  13.0126  13.4181  13.4415  15.8566

          k = 0.2500 0.4167 0.4167 (  1764 PWs)   bands (ev):

   -46.8764 -23.1828 -23.1738 -23.1477 -23.1024  -6.9261  -6.6512  -6.5275
    -5.2339  -5.0271  -4.9330   5.3498   5.6837   5.7002   6.2932   6.3828
     6.6038   8.9486   8.9956   9.5075  13.4879  13.5061  13.7428  16.2050

          k = 0.4167 0.4167 0.4167 (  1766 PWs)   bands (ev):

   -46.8761 -23.1744 -23.1724 -23.1724 -23.1030  -6.6143  -6.4353  -6.4353
    -5.3057  -5.3057  -5.1690   5.2528   5.7108   5.7108   5.9507   6.0835
     6.0835   9.4637   9.4637   9.5721  13.8137  13.8325  13.8325  16.7873

     the Fermi energy is    11.0398 ev

!    total energy              =    -285.96618431 Ry
     Harris-Foulkes estimate   =    -285.96617386 Ry
     estimated scf accuracy    <       0.00000056 Ry

     convergence has been achieved in  13 iterations

     Forces acting on atoms (Ry/au):


     negative rho (up, down):  0.736E-01 0.000E+00
     atom    1 type  2   force =     0.00000000    0.00000000    0.00000000
     atom    2 type  3   force =     0.00000000    0.00000000    0.00000000
     atom    3 type  1   force =     0.00000000    0.00000000    0.00000000
     atom    4 type  1   force =     0.00000000    0.00000000    0.00000000
     atom    5 type  1   force =     0.00000000    0.00000000    0.00000000

     Total force =     0.000000     Total SCF correction =     0.000000


     entering subroutine stress ...


     negative rho (up, down):  0.736E-01 0.000E+00
          total   stress  (Ry/bohr**3)                   (kbar)     P=  -15.86
  -0.00010781   0.00000000   0.00000000        -15.86      0.00      0.00
   0.00000000  -0.00010781   0.00000000          0.00    -15.86      0.00
   0.00000000   0.00000000  -0.00010781          0.00      0.00    -15.86


     Parrinello-Rahman Damped Cell Dynamics Minimization:
     convergence thresholds EPSE = 0.10E-05  EPSF = 0.10E-05

     Entering Dynamics;  it =     1   time =  0.00000 pico-seconds

  new lattice vectors (alat unit) :
   0.999983140   0.000000000   0.000000000
   0.000000000   0.999983140   0.000000000
   0.000000000   0.000000000   0.999983140
  new unit-cell volume =    413.9857 (a.u.)^3
  new positions in cryst coord
Sr       0.500000000   0.500000000   0.500000000
Ti       0.000000000   0.000000000   0.000000000
O        0.500000000   0.000000000   0.000000000
O        0.000000000   0.500000000   0.000000000
O        0.000000000   0.000000000   0.500000000
  new positions in cart coord (alat unit)
Sr       0.499991570   0.499991570   0.499991570
Ti       0.000000000   0.000000000   0.000000000
O        0.499991570   0.000000000   0.000000000
O        0.000000000   0.499991570   0.000000000
O        0.000000000   0.000000000   0.499991570

     Ekin =     0.00000000 Ry    T =    0.0 K  Etot =  -285.96618431
     new unit-cell volume =    413.98572 a.u.^3 (    61.34635 Ang^3 )

CELL_PARAMETERS (alat=  7.45307987)
   0.999983140   0.000000000   0.000000000
   0.000000000   0.999983140   0.000000000
   0.000000000   0.000000000   0.999983140

ATOMIC_POSITIONS (crystal)
Sr       0.500000000   0.500000000   0.500000000
Ti       0.000000000   0.000000000   0.000000000
O        0.500000000   0.000000000   0.000000000
O        0.000000000   0.500000000   0.000000000
O        0.000000000   0.000000000   0.500000000



     Writing output data file STO_lattice_constant.save
     Check: negative starting charge=   -0.071177
     NEW-OLD atomic charge density approx. for the potential
     NEW k-points:
        k(    1) = (   0.0833347   0.0833347   0.0833347), wk =   0.0740741
        k(    2) = (   0.0833347   0.0833347   0.2500042), wk =   0.2222222
        k(    3) = (   0.0833347   0.0833347   0.4166737), wk =   0.2222222
        k(    4) = (   0.0833347   0.2500042   0.2500042), wk =   0.2222222
        k(    5) = (   0.0833347   0.2500042   0.4166737), wk =   0.4444444
        k(    6) = (   0.0833347   0.4166737   0.4166737), wk =   0.2222222
        k(    7) = (   0.2500042   0.2500042   0.2500042), wk =   0.0740741
        k(    8) = (   0.2500042   0.2500042   0.4166737), wk =   0.2222222
        k(    9) = (   0.2500042   0.4166737   0.4166737), wk =   0.2222222
        k(   10) = (   0.4166737   0.4166737   0.4166737), wk =   0.0740741

     Check: negative/imaginary core charge=   -0.000038    0.000000
     Check: negative starting charge=   -0.071176

     negative rho (up, down):  0.736E-01 0.000E+00
     extrapolated charge   39.99803, renormalised to   40.00000

     total cpu time spent up to now is       87.9 secs

     per-process dynamical memory:    21.8 Mb

     Self-consistent Calculation

     iteration #  1     ecut=    40.00 Ry     beta=0.15
     Davidson diagonalization with overlap
     ethr =  1.00E-06,  avg # of iterations =  2.0

     Threshold (ethr) on eigenvalues was too large:
     Diagonalizing with lowered threshold

     Davidson diagonalization with overlap
     ethr =  1.18E-09,  avg # of iterations =  1.3

     negative rho (up, down):  0.736E-01 0.000E+00

     total cpu time spent up to now is       96.0 secs

     End of self-consistent calculation

          k = 0.0833 0.0833 0.0833 (  1791 PWs)   bands (ev):

   -46.8783 -23.1879 -23.1266 -23.1266 -23.0976  -7.6362  -6.6904  -6.6904
    -5.1198  -5.1198  -5.0551   6.6470   6.8293   6.8293   8.1745   8.1745
     8.5993   8.8374   9.0791   9.0791  11.7444  11.8013  11.8013  14.1361

          k = 0.0833 0.0833 0.2500 (  1780 PWs)   bands (ev):

   -46.8780 -23.2208 -23.1293 -23.1255 -23.0778  -7.6585  -6.6619  -6.6603
    -5.1215  -5.0704  -4.8417   6.1292   6.7155   6.8227   7.5566   7.5591
     8.2209   8.4768   8.7805   8.9143  11.8339  12.5296  12.5342  14.1375

          k = 0.0833 0.0833 0.4167 (  1769 PWs)   bands (ev):

   -46.8777 -23.2516 -23.1250 -23.1243 -23.0666  -7.7518  -6.6328  -6.5009
    -5.1238  -5.0341  -4.6575   5.5245   6.6443   6.8572   6.8955   7.1105
     7.9617   8.2233   8.6097   8.7996  11.8933  13.2149  13.2223  14.1335

          k = 0.0833 0.2500 0.2500 (  1772 PWs)   bands (ev):

   -46.8777 -23.2163 -23.1511 -23.1253 -23.0760  -7.5372  -6.7557  -6.5999
    -5.1098  -4.9627  -4.8109   5.8899   6.3688   6.7070   6.7783   7.3883
     7.8690   8.4830   8.5840   8.9455  12.5060  12.6285  12.8663  14.6420

          k = 0.0833 0.2500 0.4167 (  1773 PWs)   bands (ev):

   -46.8774 -23.2263 -23.1517 -23.1235 -23.0826  -7.4998  -6.6892  -6.5780
    -5.1179  -4.8979  -4.7385   5.4796   5.9059   6.3117   6.7945   7.0037
     7.9043   8.2046   8.4615   9.0439  12.6031  13.2376  13.3615  14.7410

          k = 0.0833 0.4167 0.4167 (  1752 PWs)   bands (ev):

   -46.8771 -23.1932 -23.1754 -23.1222 -23.1093  -7.1708  -6.8100  -6.6605
    -5.0894  -4.8097  -4.7805   5.3068   5.4133   5.6927   6.7820   6.8705
     7.7543   8.2498   8.3001   9.4793  13.2398  13.2680  13.6613  14.9360

          k = 0.2500 0.2500 0.2500 (  1791 PWs)   bands (ev):

   -46.8774 -23.2046 -23.1498 -23.1498 -23.0804  -7.3670  -6.6542  -6.6542
    -5.0828  -5.0828  -4.7688   5.7248   6.3758   6.3758   6.7983   6.7983
     6.9076   8.7603   8.7603   9.0630  12.9004  12.9629  12.9629  15.8896

          k = 0.2500 0.2500 0.4167 (  1765 PWs)   bands (ev):

   -46.8771 -23.2070 -23.1517 -23.1485 -23.0929  -7.2503  -6.6460  -6.5340
    -5.2220  -4.9534  -4.8218   5.4621   5.9055   6.2701   6.3562   6.4783
     6.9738   8.7501   8.8697   9.1580  13.0136  13.4190  13.4423  15.8570

          k = 0.2500 0.4167 0.4167 (  1764 PWs)   bands (ev):

   -46.8768 -23.1841 -23.1740 -23.1479 -23.1100  -6.9251  -6.6506  -6.5257
    -5.2407  -5.0325  -4.9385   5.3517   5.6853   5.7016   6.2948   6.3843
     6.6055   8.9506   8.9977   9.5097  13.4889  13.5070  13.7436  16.2053

          k = 0.4167 0.4167 0.4167 (  1766 PWs)   bands (ev):

   -46.8765 -23.1749 -23.1726 -23.1726 -23.1114  -6.6131  -6.4335  -6.4335
    -5.3121  -5.3121  -5.1749   5.2549   5.7122   5.7122   5.9522   6.0848
     6.0848   9.4659   9.4659   9.5744  13.8145  13.8333  13.8333  16.7861

     the Fermi energy is    11.0386 ev

!    total energy              =    -285.96618669 Ry
     Harris-Foulkes estimate   =    -285.96933252 Ry
     estimated scf accuracy    <       0.00000051 Ry

     convergence has been achieved in   1 iterations

     Forces acting on atoms (Ry/au):


     negative rho (up, down):  0.736E-01 0.000E+00
     atom    1 type  2   force =     0.00000000    0.00000000    0.00000000
     atom    2 type  3   force =     0.00000000    0.00000000    0.00000000
     atom    3 type  1   force =     0.00000000    0.00000000    0.00000000
     atom    4 type  1   force =     0.00000000    0.00000000    0.00000000
     atom    5 type  1   force =     0.00000000    0.00000000    0.00000000

     Total force =     0.000000     Total SCF correction =     0.000000


     entering subroutine stress ...


     negative rho (up, down):  0.736E-01 0.000E+00
          total   stress  (Ry/bohr**3)                   (kbar)     P=  -14.42
  -0.00009802   0.00000000   0.00000000        -14.42      0.00      0.00
   0.00000000  -0.00009802   0.00000000          0.00    -14.42      0.00
   0.00000000   0.00000000  -0.00009802          0.00      0.00    -14.42


     Entering Dynamics;  it =     2   time =  0.00097 pico-seconds

  new lattice vectors (alat unit) :
   0.999943289   0.000000000   0.000000000
   0.000000000   0.999943289   0.000000000
   0.000000000   0.000000000   0.999943289
  new unit-cell volume =    413.9362 (a.u.)^3
  new positions in cryst coord
Sr       0.500000000   0.500000000   0.500000000
Ti       0.000000000   0.000000000   0.000000000
O        0.500000000   0.000000000   0.000000000
O        0.000000000   0.500000000   0.000000000
O        0.000000000   0.000000000   0.500000000
  new positions in cart coord (alat unit)
Sr       0.499971644   0.499971644   0.499971644
Ti       0.000000000   0.000000000   0.000000000
O        0.499971644   0.000000000   0.000000000
O        0.000000000   0.499971644   0.000000000
O        0.000000000   0.000000000   0.499971644

     Ekin =     0.00000219 Ry    T =    0.0 K  Etot =  -285.96618450
     new unit-cell volume =    413.93623 a.u.^3 (    61.33902 Ang^3 )

CELL_PARAMETERS (alat=  7.45307987)
   0.999943289   0.000000000   0.000000000
   0.000000000   0.999943289   0.000000000
   0.000000000   0.000000000   0.999943289

ATOMIC_POSITIONS (crystal)
Sr       0.500000000   0.500000000   0.500000000
Ti       0.000000000   0.000000000   0.000000000
O        0.500000000   0.000000000   0.000000000
O        0.000000000   0.500000000   0.000000000
O        0.000000000   0.000000000   0.500000000



     Writing output data file STO_lattice_constant.save
     Check: negative starting charge=   -0.071176
     NEW-OLD atomic charge density approx. for the potential
     NEW k-points:
        k(    1) = (   0.0833381   0.0833381   0.0833381), wk =   0.0740741
        k(    2) = (   0.0833381   0.0833381   0.2500142), wk =   0.2222222
        k(    3) = (   0.0833381   0.0833381   0.4166903), wk =   0.2222222
        k(    4) = (   0.0833381   0.2500142   0.2500142), wk =   0.2222222
        k(    5) = (   0.0833381   0.2500142   0.4166903), wk =   0.4444444
        k(    6) = (   0.0833381   0.4166903   0.4166903), wk =   0.2222222
        k(    7) = (   0.2500142   0.2500142   0.2500142), wk =   0.0740741
        k(    8) = (   0.2500142   0.2500142   0.4166903), wk =   0.2222222
        k(    9) = (   0.2500142   0.4166903   0.4166903), wk =   0.2222222
        k(   10) = (   0.4166903   0.4166903   0.4166903), wk =   0.0740741

     Check: negative/imaginary core charge=   -0.000038    0.000000
     Check: negative starting charge=   -0.071174

     negative rho (up, down):  0.736E-01 0.000E+00
     extrapolated charge   39.99534, renormalised to   40.00000

     total cpu time spent up to now is      114.5 secs

     per-process dynamical memory:    21.8 Mb

     Self-consistent Calculation

     iteration #  1     ecut=    40.00 Ry     beta=0.15
     Davidson diagonalization with overlap
     ethr =  1.00E-06,  avg # of iterations =  2.0

     Threshold (ethr) on eigenvalues was too large:
     Diagonalizing with lowered threshold

     Davidson diagonalization with overlap
     ethr =  8.32E-09,  avg # of iterations =  1.0

     negative rho (up, down):  0.736E-01 0.000E+00

     total cpu time spent up to now is      122.7 secs

     End of self-consistent calculation

          k = 0.0833 0.0833 0.0833 (  1791 PWs)   bands (ev):

   -46.8772 -23.1821 -23.1257 -23.1257 -23.0941  -7.6394  -6.6940  -6.6940
    -5.1125  -5.1125  -5.0478   6.6446   6.8269   6.8269   8.1717   8.1717
     8.5960   8.8341   9.0757   9.0757  11.7453  11.8021  11.8021  14.1370

          k = 0.0833 0.0833 0.2500 (  1780 PWs)   bands (ev):

   -46.8769 -23.2162 -23.1281 -23.1245 -23.0731  -7.6610  -6.6657  -6.6635
    -5.1140  -5.0633  -4.8354   6.1267   6.7131   6.8203   7.5542   7.5567
     8.2180   8.4738   8.7773   8.9109  11.8347  12.5301  12.5347  14.1383

          k = 0.0833 0.0833 0.4167 (  1769 PWs)   bands (ev):

   -46.8766 -23.2478 -23.1240 -23.1233 -23.0611  -7.7537  -6.6366  -6.5039
    -5.1163  -5.0270  -4.6516   5.5218   6.6421   6.8548   6.8932   7.1084
     7.9592   8.2207   8.6064   8.7963  11.8942  13.2153  13.2227  14.1344

          k = 0.0833 0.2500 0.2500 (  1772 PWs)   bands (ev):

   -46.8766 -23.2120 -23.1501 -23.1243 -23.0710  -7.5395  -6.7580  -6.6035
    -5.1023  -4.9566  -4.8044   5.8877   6.3661   6.7047   6.7760   7.3861
     7.8663   8.4800   8.5809   8.9422  12.5066  12.6289  12.8672  14.6428

          k = 0.0833 0.2500 0.4167 (  1773 PWs)   bands (ev):

   -46.8763 -23.2229 -23.1506 -23.1224 -23.0768  -7.5018  -6.6914  -6.5815
    -5.1103  -4.8919  -4.7328   5.4770   5.9041   6.3091   6.7922   7.0017
     7.9016   8.2019   8.4585   9.0407  12.6036  13.2380  13.3624  14.7418

          k = 0.0833 0.4167 0.4167 (  1752 PWs)   bands (ev):

   -46.8760 -23.1908 -23.1745 -23.1212 -23.1025  -7.1733  -6.8113  -6.6632
    -5.0818  -4.8046  -4.7752   5.3047   5.4113   5.6898   6.7800   6.8686
     7.7513   8.2471   8.2974   9.4758  13.2402  13.2683  13.6624  14.9369

          k = 0.2500 0.2500 0.2500 (  1791 PWs)   bands (ev):

   -46.8763 -23.2005 -23.1488 -23.1488 -23.0751  -7.3691  -6.6570  -6.6570
    -5.0763  -5.0763  -4.7625   5.7227   6.3733   6.3733   6.7963   6.7963
     6.9049   8.7572   8.7572   9.0595  12.9012  12.9636  12.9636  15.8899

          k = 0.2500 0.2500 0.4167 (  1765 PWs)   bands (ev):

   -46.8760 -23.2040 -23.1506 -23.1475 -23.0867  -7.2522  -6.6480  -6.5376
    -5.2147  -4.9475  -4.8158   5.4595   5.9036   6.2678   6.3543   6.4757
     6.9714   8.7470   8.8667   9.1546  13.0142  13.4197  13.4431  15.8574

          k = 0.2500 0.4167 0.4167 (  1764 PWs)   bands (ev):

   -46.8757 -23.1822 -23.1731 -23.1469 -23.1026  -6.9274  -6.6524  -6.5289
    -5.2334  -5.0270  -4.9328   5.3491   5.6837   5.6988   6.2928   6.3826
     6.6029   8.9475   8.9945   9.5061  13.4894  13.5075  13.7445  16.2062

          k = 0.4167 0.4167 0.4167 (  1766 PWs)   bands (ev):

   -46.8754 -23.1737 -23.1717 -23.1717 -23.1032  -6.6156  -6.4367  -6.4367
    -5.3052  -5.3052  -5.1687   5.2522   5.7094   5.7094   5.9506   6.0833
     6.0833   9.4624   9.4624   9.5707  13.8152  13.8340  13.8340  16.7901

     the Fermi energy is    11.0423 ev

!    total energy              =    -285.96618961 Ry
     Harris-Foulkes estimate   =    -285.97362770 Ry
     estimated scf accuracy    <       0.00000330 Ry

     convergence has been achieved in   1 iterations

     Forces acting on atoms (Ry/au):


     negative rho (up, down):  0.736E-01 0.000E+00
     atom    1 type  2   force =     0.00000000    0.00000000    0.00000000
     atom    2 type  3   force =     0.00000000    0.00000000    0.00000000
     atom    3 type  1   force =     0.00000000    0.00000000    0.00000000
     atom    4 type  1   force =     0.00000000    0.00000000    0.00000000
     atom    5 type  1   force =     0.00000000    0.00000000    0.00000000

     Total force =     0.000000     Total SCF correction =     0.000000


     entering subroutine stress ...


     negative rho (up, down):  0.736E-01 0.000E+00
          total   stress  (Ry/bohr**3)                   (kbar)     P=  -10.26
  -0.00006974   0.00000000   0.00000000        -10.26      0.00      0.00
   0.00000000  -0.00006974   0.00000000          0.00    -10.26      0.00
   0.00000000   0.00000000  -0.00006974          0.00      0.00    -10.26


     Entering Dynamics;  it =     3   time =  0.00194 pico-seconds

  new lattice vectors (alat unit) :
   0.999887079   0.000000000   0.000000000
   0.000000000   0.999887079   0.000000000
   0.000000000   0.000000000   0.999887079
  new unit-cell volume =    413.8664 (a.u.)^3
  new positions in cryst coord
Sr       0.500000000   0.500000000   0.500000000
Ti       0.000000000   0.000000000   0.000000000
O        0.500000000   0.000000000   0.000000000
O        0.000000000   0.500000000   0.000000000
O        0.000000000   0.000000000   0.500000000
  new positions in cart coord (alat unit)
Sr       0.499943539   0.499943539   0.499943539
Ti       0.000000000   0.000000000   0.000000000
O        0.499943539   0.000000000   0.000000000
O        0.000000000   0.499943539   0.000000000
O        0.000000000   0.000000000   0.499943539

     Ekin =     0.00000639 Ry    T =    0.1 K  Etot =  -285.96618322
     new unit-cell volume =    413.86642 a.u.^3 (    61.32868 Ang^3 )

CELL_PARAMETERS (alat=  7.45307987)
   0.999887079   0.000000000   0.000000000
   0.000000000   0.999887079   0.000000000
   0.000000000   0.000000000   0.999887079

ATOMIC_POSITIONS (crystal)
Sr       0.500000000   0.500000000   0.500000000
Ti       0.000000000   0.000000000   0.000000000
O        0.500000000   0.000000000   0.000000000
O        0.000000000   0.500000000   0.000000000
O        0.000000000   0.000000000   0.500000000



     Writing output data file STO_lattice_constant.save
     Check: negative starting charge=   -0.071174
     NEW-OLD atomic charge density approx. for the potential
     NEW k-points:
        k(    1) = (   0.0833427   0.0833427   0.0833427), wk =   0.0740741
        k(    2) = (   0.0833427   0.0833427   0.2500282), wk =   0.2222222
        k(    3) = (   0.0833427   0.0833427   0.4167137), wk =   0.2222222
        k(    4) = (   0.0833427   0.2500282   0.2500282), wk =   0.2222222
        k(    5) = (   0.0833427   0.2500282   0.4167137), wk =   0.4444444
        k(    6) = (   0.0833427   0.4167137   0.4167137), wk =   0.2222222
        k(    7) = (   0.2500282   0.2500282   0.2500282), wk =   0.0740741
        k(    8) = (   0.2500282   0.2500282   0.4167137), wk =   0.2222222
        k(    9) = (   0.2500282   0.4167137   0.4167137), wk =   0.2222222
        k(   10) = (   0.4167137   0.4167137   0.4167137), wk =   0.0740741

     Check: negative/imaginary core charge=   -0.000038    0.000000
     Check: negative starting charge=   -0.071170

     negative rho (up, down):  0.736E-01 0.000E+00
     extrapolated charge   39.99343, renormalised to   40.00000

     total cpu time spent up to now is      140.5 secs

     per-process dynamical memory:    21.8 Mb

     Self-consistent Calculation

     iteration #  1     ecut=    40.00 Ry     beta=0.15
     Davidson diagonalization with overlap
     ethr =  1.00E-06,  avg # of iterations =  2.0

     negative rho (up, down):  0.736E-01 0.000E+00

     total cpu time spent up to now is      146.6 secs

     total energy              =    -285.96620182 Ry
     Harris-Foulkes estimate   =    -285.97669418 Ry
     estimated scf accuracy    <       0.00004361 Ry

     iteration #  2     ecut=    40.00 Ry     beta=0.15
     Davidson diagonalization with overlap
     ethr =  1.09E-07,  avg # of iterations =  1.0

     negative rho (up, down):  0.736E-01 0.000E+00

     total cpu time spent up to now is      151.4 secs

     total energy              =    -285.96619997 Ry
     Harris-Foulkes estimate   =    -285.96620455 Ry
     estimated scf accuracy    <       0.00002203 Ry

     iteration #  3     ecut=    40.00 Ry     beta=0.15
     Davidson diagonalization with overlap
     ethr =  5.51E-08,  avg # of iterations =  2.4

     negative rho (up, down):  0.736E-01 0.000E+00

     total cpu time spent up to now is      155.5 secs

     End of self-consistent calculation

          k = 0.0833 0.0833 0.0833 (  1791 PWs)   bands (ev):

   -46.8671 -23.1808 -23.1160 -23.1160 -23.0885  -7.6290  -6.6825  -6.6825
    -5.1147  -5.1147  -5.0499   6.6544   6.8370   6.8370   8.1818   8.1818
     8.6071   8.8462   9.0880   9.0880  11.7532  11.8101  11.8101  14.1476

          k = 0.0833 0.0833 0.2500 (  1780 PWs)   bands (ev):

   -46.8668 -23.2128 -23.1187 -23.1148 -23.0694  -7.6517  -6.6539  -6.6525
    -5.1164  -5.0652  -4.8359   6.1366   6.7230   6.8302   7.5638   7.5659
     8.2286   8.4843   8.7892   8.9230  11.8428  12.5392  12.5437  14.1490

          k = 0.0833 0.0833 0.4167 (  1769 PWs)   bands (ev):

   -46.8665 -23.2432 -23.1144 -23.1136 -23.0587  -7.7454  -6.6247  -6.4928
    -5.1188  -5.0288  -4.6512   5.5321   6.6510   6.8645   6.9024   7.1171
     7.9691   8.2304   8.6183   8.8082  11.9025  13.2252  13.2326  14.1451

          k = 0.0833 0.2500 0.2500 (  1772 PWs)   bands (ev):

   -46.8665 -23.2082 -23.1405 -23.1147 -23.0678  -7.5303  -6.7483  -6.5918
    -5.1047  -4.9569  -4.8050   5.8967   6.3767   6.7140   6.7854   7.3950
     7.8768   8.4908   8.5924   8.9536  12.5155  12.6383  12.8758  14.6538

          k = 0.0833 0.2500 0.4167 (  1773 PWs)   bands (ev):

   -46.8662 -23.2177 -23.1411 -23.1128 -23.0750  -7.4931  -6.6817  -6.5700
    -5.1128  -4.8920  -4.7324   5.4870   5.9120   6.3193   6.8014   7.0103
     7.9122   8.2122   8.4696   9.0520  12.6128  13.2480  13.3716  14.7529

          k = 0.0833 0.4167 0.4167 (  1752 PWs)   bands (ev):

   -46.8659 -23.1838 -23.1649 -23.1116 -23.1024  -7.1637  -6.8030  -6.6527
    -5.0843  -4.8034  -4.7742   5.3133   5.4198   5.7004   6.7885   6.8769
     7.7630   8.2574   8.3077   9.4878  13.2502  13.2784  13.6715  14.9479

          k = 0.2500 0.2500 0.2500 (  1791 PWs)   bands (ev):

   -46.8662 -23.1963 -23.1392 -23.1392 -23.0724  -7.3600  -6.6465  -6.6465
    -5.0774  -5.0774  -4.7628   5.7312   6.3837   6.3837   6.8050   6.8050
     6.9153   8.7682   8.7682   9.0711  12.9103  12.9726  12.9726  15.9020

          k = 0.2500 0.2500 0.4167 (  1765 PWs)   bands (ev):

   -46.8659 -23.1980 -23.1412 -23.1379 -23.0856  -7.2434  -6.6385  -6.5258
    -5.2171  -4.9475  -4.8158   5.4694   5.9118   6.2773   6.3629   6.4859
     6.9811   8.7579   8.8776   9.1661  13.0236  13.4293  13.4526  15.8693

          k = 0.2500 0.4167 0.4167 (  1764 PWs)   bands (ev):

   -46.8656 -23.1743 -23.1635 -23.1374 -23.1035  -6.9178  -6.6431  -6.5177
    -5.2358  -5.0267  -4.9326   5.3591   5.6912   5.7093   6.3015   6.3907
     6.6134   8.9586   9.0057   9.5182  13.4993  13.5175  13.7540  16.2170

          k = 0.4167 0.4167 0.4167 (  1766 PWs)   bands (ev):

   -46.8653 -23.1645 -23.1621 -23.1621 -23.1055  -6.6054  -6.4253  -6.4253
    -5.3072  -5.3072  -5.1696   5.2623   5.7200   5.7200   5.9584   6.0912
     6.0912   9.4744   9.4744   9.5830  13.8253  13.8440  13.8440  16.7918

     the Fermi energy is    11.0449 ev

!    total energy              =    -285.96619756 Ry
     Harris-Foulkes estimate   =    -285.96620150 Ry
     estimated scf accuracy    <       0.00000469 Ry

     convergence has been achieved in   3 iterations

     Forces acting on atoms (Ry/au):


     negative rho (up, down):  0.736E-01 0.000E+00
     atom    1 type  2   force =     0.00000000    0.00000000    0.00000000
     atom    2 type  3   force =     0.00000000    0.00000000    0.00000000
     atom    3 type  1   force =     0.00000000    0.00000000    0.00000000
     atom    4 type  1   force =     0.00000000    0.00000000    0.00000000
     atom    5 type  1   force =     0.00000000    0.00000000    0.00000000

     Total force =     0.000000     Total SCF correction =     0.000000


     entering subroutine stress ...


     negative rho (up, down):  0.736E-01 0.000E+00
          total   stress  (Ry/bohr**3)                   (kbar)     P=  -21.36
  -0.00014517   0.00000000   0.00000000        -21.36      0.00      0.00
   0.00000000  -0.00014517   0.00000000          0.00    -21.36      0.00
   0.00000000   0.00000000  -0.00014517          0.00      0.00    -21.36


     Entering Dynamics;  it =     4   time =  0.00290 pico-seconds

  new lattice vectors (alat unit) :
   0.999796824   0.000000000   0.000000000
   0.000000000   0.999796824   0.000000000
   0.000000000   0.000000000   0.999796824
  new unit-cell volume =    413.7544 (a.u.)^3
  new positions in cryst coord
Sr       0.500000000   0.500000000   0.500000000
Ti       0.000000000   0.000000000   0.000000000
O        0.500000000   0.000000000   0.000000000
O        0.000000000   0.500000000   0.000000000
O        0.000000000   0.000000000   0.500000000
  new positions in cart coord (alat unit)
Sr       0.499898412   0.499898412   0.499898412
Ti       0.000000000   0.000000000   0.000000000
O        0.499898412   0.000000000   0.000000000
O        0.000000000   0.499898412   0.000000000
O        0.000000000   0.000000000   0.499898412

     Ekin =     0.00001308 Ry    T =    0.1 K  Etot =  -285.96618448
     new unit-cell volume =    413.75436 a.u.^3 (    61.31207 Ang^3 )

CELL_PARAMETERS (alat=  7.45307987)
   0.999796824   0.000000000   0.000000000
   0.000000000   0.999796824   0.000000000
   0.000000000   0.000000000   0.999796824

ATOMIC_POSITIONS (crystal)
Sr       0.500000000   0.500000000   0.500000000
Ti       0.000000000   0.000000000   0.000000000
O        0.500000000   0.000000000   0.000000000
O        0.000000000   0.500000000   0.000000000
O        0.000000000   0.000000000   0.500000000



     Writing output data file STO_lattice_constant.save
     Check: negative starting charge=   -0.071170
     NEW-OLD atomic charge density approx. for the potential
     NEW k-points:
        k(    1) = (   0.0833503   0.0833503   0.0833503), wk =   0.0740741
        k(    2) = (   0.0833503   0.0833503   0.2500508), wk =   0.2222222
        k(    3) = (   0.0833503   0.0833503   0.4167513), wk =   0.2222222
        k(    4) = (   0.0833503   0.2500508   0.2500508), wk =   0.2222222
        k(    5) = (   0.0833503   0.2500508   0.4167513), wk =   0.4444444
        k(    6) = (   0.0833503   0.4167513   0.4167513), wk =   0.2222222
        k(    7) = (   0.2500508   0.2500508   0.2500508), wk =   0.0740741
        k(    8) = (   0.2500508   0.2500508   0.4167513), wk =   0.2222222
        k(    9) = (   0.2500508   0.4167513   0.4167513), wk =   0.2222222
        k(   10) = (   0.4167513   0.4167513   0.4167513), wk =   0.0740741

     Check: negative/imaginary core charge=   -0.000038    0.000000
     Check: negative starting charge=   -0.071166

     negative rho (up, down):  0.736E-01 0.000E+00
     extrapolated charge   39.98945, renormalised to   40.00000

     total cpu time spent up to now is      173.4 secs

     per-process dynamical memory:    21.8 Mb

     Self-consistent Calculation

     iteration #  1     ecut=    40.00 Ry     beta=0.15
     Davidson diagonalization with overlap
     ethr =  1.00E-06,  avg # of iterations =  2.0

     negative rho (up, down):  0.736E-01 0.000E+00

     total cpu time spent up to now is      178.6 secs

     total energy              =    -285.96620902 Ry
     Harris-Foulkes estimate   =    -285.98305398 Ry
     estimated scf accuracy    <       0.00004245 Ry

     iteration #  2     ecut=    40.00 Ry     beta=0.15
     Davidson diagonalization with overlap
     ethr =  1.06E-07,  avg # of iterations =  2.0

     negative rho (up, down):  0.737E-01 0.000E+00

     total cpu time spent up to now is      183.5 secs

     End of self-consistent calculation

          k = 0.0834 0.0834 0.0834 (  1791 PWs)   bands (ev):

   -46.8604 -23.1704 -23.1099 -23.1099 -23.0803  -7.6369  -6.6913  -6.6913
    -5.1037  -5.1037  -5.0390   6.6485   6.8310   6.8310   8.1746   8.1746
     8.5987   8.8383   9.0798   9.0798  11.7576  11.8143  11.8143  14.1528

          k = 0.0834 0.0834 0.2501 (  1780 PWs)   bands (ev):

   -46.8601 -23.2037 -23.1125 -23.1087 -23.0602  -7.6584  -6.6629  -6.6603
    -5.1052  -5.0545  -4.8266   6.1310   6.7171   6.8243   7.5577   7.5598
     8.2214   8.4766   8.7815   8.9149  11.8472  12.5427  12.5472  14.1542

          k = 0.0834 0.0834 0.4168 (  1769 PWs)   bands (ev):

   -46.8598 -23.2348 -23.1082 -23.1075 -23.0488  -7.7511  -6.6339  -6.5004
    -5.1074  -5.0182  -4.6429   5.5265   6.6455   6.8585   6.8966   7.1117
     7.9626   8.2235   8.6106   8.8001  11.9069  13.2285  13.2358  14.1503

          k = 0.0834 0.2501 0.2501 (  1772 PWs)   bands (ev):

   -46.8598 -23.1993 -23.1344 -23.1085 -23.0583  -7.5368  -6.7546  -6.6006
    -5.0935  -4.9483  -4.7956   5.8913   6.3711   6.7084   6.7798   7.3893
     7.8698   8.4833   8.5851   8.9453  12.5193  12.6416  12.8801  14.6585

          k = 0.0834 0.2501 0.4168 (  1773 PWs)   bands (ev):

   -46.8595 -23.2094 -23.1350 -23.1066 -23.0648  -7.4989  -6.6877  -6.5784
    -5.1015  -4.8835  -4.7242   5.4814   5.9071   6.3136   6.7959   7.0050
     7.9053   8.2053   8.4621   9.0439  12.6165  13.2512  13.3759  14.7576

          k = 0.0834 0.4168 0.4168 (  1752 PWs)   bands (ev):

   -46.8592 -23.1764 -23.1589 -23.1054 -23.0915  -7.1703  -6.8074  -6.6598
    -5.0728  -4.7964  -4.7668   5.3082   5.4147   5.6949   6.7833   6.8718
     7.7560   8.2503   8.3005   9.4790  13.2536  13.2817  13.6765  14.9527

          k = 0.2501 0.2501 0.2501 (  1791 PWs)   bands (ev):

   -46.8595 -23.1875 -23.1331 -23.1331 -23.0627  -7.3661  -6.6537  -6.6537
    -5.0679  -5.0679  -4.7537   5.7260   6.3781   6.3781   6.7998   6.7998
     6.9091   8.7605   8.7605   9.0625  12.9146  12.9766  12.9766  15.9055

          k = 0.2501 0.2501 0.4168 (  1765 PWs)   bands (ev):

   -46.8592 -23.1902 -23.1350 -23.1318 -23.0751  -7.2491  -6.6442  -6.5344
    -5.2062  -4.9392  -4.8073   5.4638   5.9069   6.2719   6.3581   6.4804
     6.9754   8.7501   8.8699   9.1577  13.0274  13.4334  13.4566  15.8729

          k = 0.2501 0.4168 0.4168 (  1764 PWs)   bands (ev):

   -46.8589 -23.1674 -23.1575 -23.1312 -23.0920  -6.9240  -6.6486  -6.5256
    -5.2248  -5.0189  -4.9245   5.3534   5.6868   5.7038   6.2967   6.3861
     6.6076   8.9506   8.9976   9.5093  13.5032  13.5212  13.7586  16.2210

          k = 0.4168 0.4168 0.4168 (  1766 PWs)   bands (ev):

   -46.8586 -23.1583 -23.1560 -23.1560 -23.0933  -6.6120  -6.4332  -6.4332
    -5.2970  -5.2970  -5.1606   5.2563   5.7145   5.7145   5.9541   6.0869
     6.0869   9.4656   9.4656   9.5739  13.8294  13.8482  13.8482  16.7979

     the Fermi energy is    11.0510 ev

!    total energy              =    -285.96619970 Ry
     Harris-Foulkes estimate   =    -285.96621625 Ry
     estimated scf accuracy    <       0.00001869 Ry

     convergence has been achieved in   2 iterations

     Forces acting on atoms (Ry/au):


     negative rho (up, down):  0.737E-01 0.000E+00
     atom    1 type  2   force =     0.00000000    0.00000000    0.00000000
     atom    2 type  3   force =     0.00000000    0.00000000    0.00000000
     atom    3 type  1   force =     0.00000000    0.00000000    0.00000000
     atom    4 type  1   force =     0.00000000    0.00000000    0.00000000
     atom    5 type  1   force =     0.00000000    0.00000000    0.00000000

     Total force =     0.000000     Total SCF correction =     0.000000


     entering subroutine stress ...


     negative rho (up, down):  0.737E-01 0.000E+00
          total   stress  (Ry/bohr**3)                   (kbar)     P=  -13.77
  -0.00009362   0.00000000   0.00000000        -13.77      0.00      0.00
   0.00000000  -0.00009362   0.00000000          0.00    -13.77      0.00
   0.00000000   0.00000000  -0.00009362          0.00      0.00    -13.77


     Entering Dynamics;  it =     5   time =  0.00387 pico-seconds

  new lattice vectors (alat unit) :
   0.999684617   0.000000000   0.000000000
   0.000000000   0.999684617   0.000000000
   0.000000000   0.000000000   0.999684617
  new unit-cell volume =    413.6151 (a.u.)^3
  new positions in cryst coord
Sr       0.500000000   0.500000000   0.500000000
Ti       0.000000000   0.000000000   0.000000000
O        0.500000000   0.000000000   0.000000000
O        0.000000000   0.500000000   0.000000000
O        0.000000000   0.000000000   0.500000000
  new positions in cart coord (alat unit)
Sr       0.499842309   0.499842309   0.499842309
Ti       0.000000000   0.000000000   0.000000000
O        0.499842309   0.000000000   0.000000000
O        0.000000000   0.499842309   0.000000000
O        0.000000000   0.000000000   0.499842309

     Ekin =     0.00002822 Ry    T =    0.2 K  Etot =  -285.96617147
     new unit-cell volume =    413.61507 a.u.^3 (    61.29143 Ang^3 )

CELL_PARAMETERS (alat=  7.45307987)
   0.999684617   0.000000000   0.000000000
   0.000000000   0.999684617   0.000000000
   0.000000000   0.000000000   0.999684617

ATOMIC_POSITIONS (crystal)
Sr       0.500000000   0.500000000   0.500000000
Ti       0.000000000   0.000000000   0.000000000
O        0.500000000   0.000000000   0.000000000
O        0.000000000   0.500000000   0.000000000
O        0.000000000   0.000000000   0.500000000



     Writing output data file STO_lattice_constant.save
     Check: negative starting charge=   -0.071166
     NEW-OLD atomic charge density approx. for the potential
     NEW k-points:
        k(    1) = (   0.0833596   0.0833596   0.0833596), wk =   0.0740741
        k(    2) = (   0.0833596   0.0833596   0.2500789), wk =   0.2222222
        k(    3) = (   0.0833596   0.0833596   0.4167981), wk =   0.2222222
        k(    4) = (   0.0833596   0.2500789   0.2500789), wk =   0.2222222
        k(    5) = (   0.0833596   0.2500789   0.4167981), wk =   0.4444444
        k(    6) = (   0.0833596   0.4167981   0.4167981), wk =   0.2222222
        k(    7) = (   0.2500789   0.2500789   0.2500789), wk =   0.0740741
        k(    8) = (   0.2500789   0.2500789   0.4167981), wk =   0.2222222
        k(    9) = (   0.2500789   0.4167981   0.4167981), wk =   0.2222222
        k(   10) = (   0.4167981   0.4167981   0.4167981), wk =   0.0740741

     Check: negative/imaginary core charge=   -0.000038    0.000000
     Check: negative starting charge=   -0.071159

     negative rho (up, down):  0.736E-01 0.000E+00
     extrapolated charge   39.98688, renormalised to   40.00000

     total cpu time spent up to now is      202.0 secs

     per-process dynamical memory:    21.8 Mb

     Self-consistent Calculation

     iteration #  1     ecut=    40.00 Ry     beta=0.15
     Davidson diagonalization with overlap
     ethr =  1.00E-06,  avg # of iterations =  3.0

     negative rho (up, down):  0.737E-01 0.000E+00

     total cpu time spent up to now is      207.5 secs

     total energy              =    -285.96623537 Ry
     Harris-Foulkes estimate   =    -285.98720851 Ry
     estimated scf accuracy    <       0.00032503 Ry

     iteration #  2     ecut=    40.00 Ry     beta=0.15
     Davidson diagonalization with overlap
     ethr =  8.13E-07,  avg # of iterations =  1.0

     negative rho (up, down):  0.736E-01 0.000E+00

     total cpu time spent up to now is      212.0 secs

     total energy              =    -285.96621326 Ry
     Harris-Foulkes estimate   =    -285.96624944 Ry
     estimated scf accuracy    <       0.00014690 Ry

     iteration #  3     ecut=    40.00 Ry     beta=0.15
     Davidson diagonalization with overlap
     ethr =  3.67E-07,  avg # of iterations =  2.5

     negative rho (up, down):  0.736E-01 0.000E+00

     total cpu time spent up to now is      216.5 secs

     End of self-consistent calculation

          k = 0.0834 0.0834 0.0834 (  1791 PWs)   bands (ev):

   -46.8627 -23.1732 -23.1117 -23.1117 -23.0826  -7.6235  -6.6764  -6.6764
    -5.1054  -5.1054  -5.0405   6.6610   6.8437   6.8437   8.1884   8.1884
     8.6142   8.8536   9.0955   9.0955  11.7587  11.8157  11.8157  14.1553

          k = 0.0834 0.0834 0.2501 (  1780 PWs)   bands (ev):

   -46.8624 -23.2062 -23.1143 -23.1105 -23.0627  -7.6462  -6.6479  -6.6461
    -5.1071  -5.0558  -4.8263   6.1424   6.7293   6.8368   7.5701   7.5720
     8.2356   8.4912   8.7964   8.9303  11.8484  12.5456  12.5501  14.1567

          k = 0.0834 0.0834 0.4168 (  1769 PWs)   bands (ev):

   -46.8621 -23.2372 -23.1100 -23.1093 -23.0514  -7.7401  -6.6186  -6.4860
    -5.1095  -5.0194  -4.6414   5.5366   6.6570   6.8708   6.9086   7.1230
     7.9759   8.2371   8.6254   8.8154  11.9080  13.2322  13.2396  14.1528

          k = 0.0834 0.2501 0.2501 (  1772 PWs)   bands (ev):

   -46.8621 -23.2017 -23.1362 -23.1104 -23.0608  -7.5247  -6.7419  -6.5855
    -5.0954  -4.9476  -4.7953   5.9023   6.3820   6.7197   6.7916   7.4009
     7.8836   8.4980   8.5994   8.9610  12.5218  12.6447  12.8824  14.6621

          k = 0.0834 0.2501 0.4168 (  1773 PWs)   bands (ev):

   -46.8618 -23.2117 -23.1368 -23.1085 -23.0675  -7.4875  -6.6751  -6.5636
    -5.1035  -4.8825  -4.7227   5.4917   5.9171   6.3248   6.8073   7.0161
     7.9190   8.2192   8.4765   9.0594  12.6192  13.2550  13.3785  14.7613

          k = 0.0834 0.4168 0.4168 (  1752 PWs)   bands (ev):

   -46.8615 -23.1785 -23.1607 -23.1072 -23.0943  -7.1578  -6.7964  -6.6463
    -5.0749  -4.7939  -4.7646   5.3183   5.4248   5.7043   6.7941   6.8824
     7.7699   8.2645   8.3150   9.4956  13.2572  13.2854  13.6786  14.9566

          k = 0.2501 0.2501 0.2501 (  1791 PWs)   bands (ev):

   -46.8618 -23.1900 -23.1350 -23.1350 -23.0653  -7.3542  -6.6401  -6.6401
    -5.0682  -5.0682  -4.7531   5.7368   6.3890   6.3890   6.8106   6.8106
     6.9217   8.7755   8.7755   9.0786  12.9169  12.9793  12.9793  15.9113

          k = 0.2501 0.2501 0.4168 (  1765 PWs)   bands (ev):

   -46.8615 -23.1924 -23.1368 -23.1336 -23.0778  -7.2374  -6.6318  -6.5194
    -5.2080  -4.9382  -4.8062   5.4743   5.9168   6.2830   6.3685   6.4911
     6.9871   8.7651   8.8851   9.1736  13.0304  13.4364  13.4596  15.8786

          k = 0.2501 0.4168 0.4168 (  1764 PWs)   bands (ev):

   -46.8612 -23.1693 -23.1593 -23.1330 -23.0950  -6.9115  -6.6364  -6.5110
    -5.2268  -5.0175  -4.9232   5.3644   5.6964   5.7133   6.3070   6.3963
     6.6190   8.9660   9.0132   9.5260  13.5065  13.5246  13.7612  16.2269

          k = 0.4168 0.4168 0.4168 (  1766 PWs)   bands (ev):

   -46.8609 -23.1601 -23.1578 -23.1578 -23.0964  -6.5986  -6.4185  -6.4185
    -5.2983  -5.2983  -5.1605   5.2681   5.7239   5.7239   5.9640   6.0969
     6.0969   9.4822   9.4822   9.5909  13.8326  13.8514  13.8514  16.8026

     the Fermi energy is    11.0550 ev

!    total energy              =    -285.96622092 Ry
     Harris-Foulkes estimate   =    -285.96622845 Ry
     estimated scf accuracy    <       0.00000860 Ry

     convergence has been achieved in   3 iterations

     Forces acting on atoms (Ry/au):


     negative rho (up, down):  0.736E-01 0.000E+00
     atom    1 type  2   force =     0.00000000    0.00000000    0.00000000
     atom    2 type  3   force =     0.00000000    0.00000000    0.00000000
     atom    3 type  1   force =     0.00000000    0.00000000    0.00000000
     atom    4 type  1   force =     0.00000000    0.00000000    0.00000000
     atom    5 type  1   force =     0.00000000    0.00000000    0.00000000

     Total force =     0.000000     Total SCF correction =     0.000000


     entering subroutine stress ...


     negative rho (up, down):  0.736E-01 0.000E+00
          total   stress  (Ry/bohr**3)                   (kbar)     P=  -16.67
  -0.00011333   0.00000000   0.00000000        -16.67      0.00      0.00
   0.00000000  -0.00011333   0.00000000          0.00    -16.67      0.00
   0.00000000   0.00000000  -0.00011333          0.00      0.00    -16.67


     Entering Dynamics;  it =     6   time =  0.00484 pico-seconds

  new lattice vectors (alat unit) :
   0.999545843   0.000000000   0.000000000
   0.000000000   0.999545843   0.000000000
   0.000000000   0.000000000   0.999545843
  new unit-cell volume =    413.4428 (a.u.)^3
  new positions in cryst coord
Sr       0.500000000   0.500000000   0.500000000
Ti       0.000000000   0.000000000   0.000000000
O        0.500000000   0.000000000   0.000000000
O        0.000000000   0.500000000   0.000000000
O        0.000000000   0.000000000   0.500000000
  new positions in cart coord (alat unit)
Sr       0.499772922   0.499772922   0.499772922
Ti       0.000000000   0.000000000   0.000000000
O        0.499772922   0.000000000   0.000000000
O        0.000000000   0.499772922   0.000000000
O        0.000000000   0.000000000   0.499772922

     Ekin =     0.00004118 Ry    T =    0.3 K  Etot =  -285.96617974
     new unit-cell volume =    413.44284 a.u.^3 (    61.26591 Ang^3 )

CELL_PARAMETERS (alat=  7.45307987)
   0.999545843   0.000000000   0.000000000
   0.000000000   0.999545843   0.000000000
   0.000000000   0.000000000   0.999545843

ATOMIC_POSITIONS (crystal)
Sr       0.500000000   0.500000000   0.500000000
Ti       0.000000000   0.000000000   0.000000000
O        0.500000000   0.000000000   0.000000000
O        0.000000000   0.500000000   0.000000000
O        0.000000000   0.000000000   0.500000000



     Writing output data file STO_lattice_constant.save
     Check: negative starting charge=   -0.071159
     NEW-OLD atomic charge density approx. for the potential
     NEW k-points:
        k(    1) = (   0.0833712   0.0833712   0.0833712), wk =   0.0740741
        k(    2) = (   0.0833712   0.0833712   0.2501136), wk =   0.2222222
        k(    3) = (   0.0833712   0.0833712   0.4168560), wk =   0.2222222
        k(    4) = (   0.0833712   0.2501136   0.2501136), wk =   0.2222222
        k(    5) = (   0.0833712   0.2501136   0.4168560), wk =   0.4444444
        k(    6) = (   0.0833712   0.4168560   0.4168560), wk =   0.2222222
        k(    7) = (   0.2501136   0.2501136   0.2501136), wk =   0.0740741
        k(    8) = (   0.2501136   0.2501136   0.4168560), wk =   0.2222222
        k(    9) = (   0.2501136   0.4168560   0.4168560), wk =   0.2222222
        k(   10) = (   0.4168560   0.4168560   0.4168560), wk =   0.0740741

     Check: negative/imaginary core charge=   -0.000038    0.000000
     Check: negative starting charge=   -0.071152

     negative rho (up, down):  0.736E-01 0.000E+00
     extrapolated charge   39.98377, renormalised to   40.00000

     total cpu time spent up to now is      232.9 secs

     per-process dynamical memory:    21.8 Mb

     Self-consistent Calculation

     iteration #  1     ecut=    40.00 Ry     beta=0.15
     Davidson diagonalization with overlap
     ethr =  1.00E-06,  avg # of iterations =  2.0

     negative rho (up, down):  0.737E-01 0.000E+00

     total cpu time spent up to now is      239.9 secs

     total energy              =    -285.96623924 Ry
     Harris-Foulkes estimate   =    -285.99213678 Ry
     estimated scf accuracy    <       0.00010530 Ry

     iteration #  2     ecut=    40.00 Ry     beta=0.15
     Davidson diagonalization with overlap
     ethr =  2.63E-07,  avg # of iterations =  2.0

     negative rho (up, down):  0.737E-01 0.000E+00

     total cpu time spent up to now is      244.7 secs

     total energy              =    -285.96624762 Ry
     Harris-Foulkes estimate   =    -285.96625561 Ry
     estimated scf accuracy    <       0.00005917 Ry

     iteration #  3     ecut=    40.00 Ry     beta=0.15
     Davidson diagonalization with overlap
     ethr =  1.48E-07,  avg # of iterations =  1.0

     negative rho (up, down):  0.737E-01 0.000E+00

     total cpu time spent up to now is      249.2 secs

     total energy              =    -285.96623957 Ry
     Harris-Foulkes estimate   =    -285.96624889 Ry
     estimated scf accuracy    <       0.00002624 Ry

     iteration #  4     ecut=    40.00 Ry     beta=0.15
     Davidson diagonalization with overlap
     ethr =  6.56E-08,  avg # of iterations =  2.9

     negative rho (up, down):  0.737E-01 0.000E+00

     total cpu time spent up to now is      253.9 secs

     End of self-consistent calculation

          k = 0.0834 0.0834 0.0834 (  1791 PWs)   bands (ev):

   -46.8520 -23.1609 -23.1015 -23.1015 -23.0712  -7.6217  -6.6745  -6.6745
    -5.0932  -5.0932  -5.0282   6.6643   6.8472   6.8472   8.1908   8.1908
     8.6163   8.8571   9.0988   9.0988  11.7671  11.8242  11.8242  14.1661

          k = 0.0834 0.0834 0.2501 (  1780 PWs)   bands (ev):

   -46.8517 -23.1946 -23.1041 -23.1003 -23.0507  -7.6439  -6.6459  -6.6436
    -5.0949  -5.0437  -4.8146   6.1457   6.7326   6.8401   7.5729   7.5745
     8.2384   8.4935   8.7998   8.9335  11.8569  12.5542  12.5587  14.1676

          k = 0.0834 0.0834 0.4169 (  1769 PWs)   bands (ev):

   -46.8514 -23.2260 -23.0998 -23.0991 -23.0391  -7.7375  -6.6167  -6.4832
    -5.0971  -5.0073  -4.6300   5.5401   6.6598   6.8740   6.9114   7.1256
     7.9787   8.2394   8.6288   8.8186  11.9167  13.2413  13.2487  14.1637

          k = 0.0834 0.2501 0.2501 (  1772 PWs)   bands (ev):

   -46.8514 -23.1902 -23.1261 -23.1002 -23.0488  -7.5222  -6.7388  -6.5834
    -5.0831  -4.9363  -4.7835   5.9053   6.3858   6.7227   6.7947   7.4035
     7.8866   8.5007   8.6027   8.9635  12.5306  12.6534  12.8914  14.6731

          k = 0.0834 0.2501 0.4169 (  1773 PWs)   bands (ev):

   -46.8511 -23.2006 -23.1267 -23.0983 -23.0550  -7.4847  -6.6718  -6.5613
    -5.0911  -4.8712  -4.7114   5.4950   5.9196   6.3283   6.8103   7.0187
     7.9222   8.2221   8.4795   9.0620  12.6280  13.2641  13.3880  14.7723

          k = 0.0834 0.4169 0.4169 (  1752 PWs)   bands (ev):

   -46.8508 -23.1678 -23.1506 -23.0970 -23.0815  -7.1551  -6.7924  -6.6434
    -5.0624  -4.7832  -4.7537   5.3210   5.4276   5.7078   6.7968   6.8850
     7.7737   8.2673   8.3177   9.4982  13.2664  13.2946  13.6884  14.9677

          k = 0.2501 0.2501 0.2501 (  1791 PWs)   bands (ev):

   -46.8511 -23.1785 -23.1248 -23.1248 -23.0531  -7.3514  -6.6373  -6.6373
    -5.0567  -5.0567  -4.7413   5.7395   6.3926   6.3926   6.8134   6.8134
     6.9251   8.7782   8.7782   9.0809  12.9262  12.9883  12.9883  15.9223

          k = 0.2501 0.2501 0.4169 (  1765 PWs)   bands (ev):

   -46.8508 -23.1815 -23.1267 -23.1235 -23.0652  -7.2344  -6.6283  -6.5171
    -5.1960  -4.9271  -4.7948   5.4775   5.9194   6.2863   6.3716   6.4946
     6.9904   8.7677   8.8878   9.1761  13.0395  13.4459  13.4690  15.8897

          k = 0.2501 0.4169 0.4169 (  1764 PWs)   bands (ev):

   -46.8505 -23.1589 -23.1492 -23.1229 -23.0819  -6.9085  -6.6328  -6.5084
    -5.2148  -5.0067  -4.9122   5.3677   5.6991   5.7168   6.3101   6.3992
     6.6226   8.9686   9.0158   9.5286  13.5160  13.5341  13.7710  16.2379

          k = 0.4169 0.4169 0.4169 (  1766 PWs)   bands (ev):

   -46.8502 -23.1500 -23.1478 -23.1478 -23.0829  -6.5955  -6.4157  -6.4157
    -5.2868  -5.2868  -5.1494   5.2715   5.7274   5.7274   5.9669   6.1000
     6.1000   9.4848   9.4848   9.5934  13.8424  13.8612  13.8612  16.8118

     the Fermi energy is    11.0644 ev

!    total energy              =    -285.96624415 Ry
     Harris-Foulkes estimate   =    -285.96624489 Ry
     estimated scf accuracy    <       0.00000092 Ry

     convergence has been achieved in   4 iterations

     Forces acting on atoms (Ry/au):


     negative rho (up, down):  0.737E-01 0.000E+00
     atom    1 type  2   force =     0.00000000    0.00000000    0.00000000
     atom    2 type  3   force =     0.00000000    0.00000000    0.00000000
     atom    3 type  1   force =     0.00000000    0.00000000    0.00000000
     atom    4 type  1   force =     0.00000000    0.00000000    0.00000000
     atom    5 type  1   force =     0.00000000    0.00000000    0.00000000

     Total force =     0.000000     Total SCF correction =     0.000000


     entering subroutine stress ...


     negative rho (up, down):  0.737E-01 0.000E+00
          total   stress  (Ry/bohr**3)                   (kbar)     P=  -15.82
  -0.00010754   0.00000000   0.00000000        -15.82      0.00      0.00
   0.00000000  -0.00010754   0.00000000          0.00    -15.82      0.00
   0.00000000   0.00000000  -0.00010754          0.00      0.00    -15.82


     Entering Dynamics;  it =     7   time =  0.00581 pico-seconds

  new lattice vectors (alat unit) :
   0.999381866   0.000000000   0.000000000
   0.000000000   0.999381866   0.000000000
   0.000000000   0.000000000   0.999381866
  new unit-cell volume =    413.2394 (a.u.)^3
  new positions in cryst coord
Sr       0.500000000   0.500000000   0.500000000
Ti       0.000000000   0.000000000   0.000000000
O        0.500000000   0.000000000   0.000000000
O        0.000000000   0.500000000   0.000000000
O        0.000000000   0.000000000   0.500000000
  new positions in cart coord (alat unit)
Sr       0.499690933   0.499690933   0.499690933
Ti       0.000000000   0.000000000   0.000000000
O        0.499690933   0.000000000   0.000000000
O        0.000000000   0.499690933   0.000000000
O        0.000000000   0.000000000   0.499690933

     Ekin =     0.00006085 Ry    T =    0.4 K  Etot =  -285.96618330
     new unit-cell volume =    413.23940 a.u.^3 (    61.23576 Ang^3 )

CELL_PARAMETERS (alat=  7.45307987)
   0.999381866   0.000000000   0.000000000
   0.000000000   0.999381866   0.000000000
   0.000000000   0.000000000   0.999381866

ATOMIC_POSITIONS (crystal)
Sr       0.500000000   0.500000000   0.500000000
Ti       0.000000000   0.000000000   0.000000000
O        0.500000000   0.000000000   0.000000000
O        0.000000000   0.500000000   0.000000000
O        0.000000000   0.000000000   0.500000000



     Writing output data file STO_lattice_constant.save
     Check: negative starting charge=   -0.071152
     NEW-OLD atomic charge density approx. for the potential
     NEW k-points:
        k(    1) = (   0.0833849   0.0833849   0.0833849), wk =   0.0740741
        k(    2) = (   0.0833849   0.0833849   0.2501546), wk =   0.2222222
        k(    3) = (   0.0833849   0.0833849   0.4169244), wk =   0.2222222
        k(    4) = (   0.0833849   0.2501546   0.2501546), wk =   0.2222222
        k(    5) = (   0.0833849   0.2501546   0.4169244), wk =   0.4444444
        k(    6) = (   0.0833849   0.4169244   0.4169244), wk =   0.2222222
        k(    7) = (   0.2501546   0.2501546   0.2501546), wk =   0.0740741
        k(    8) = (   0.2501546   0.2501546   0.4169244), wk =   0.2222222
        k(    9) = (   0.2501546   0.4169244   0.4169244), wk =   0.2222222
        k(   10) = (   0.4169244   0.4169244   0.4169244), wk =   0.0740741

     Check: negative/imaginary core charge=   -0.000038    0.000000
     Check: negative starting charge=   -0.071143

     negative rho (up, down):  0.736E-01 0.000E+00
     extrapolated charge   39.98082, renormalised to   40.00000

     total cpu time spent up to now is      272.2 secs

     per-process dynamical memory:    21.8 Mb

     Self-consistent Calculation

     iteration #  1     ecut=    40.00 Ry     beta=0.15
     Davidson diagonalization with overlap
     ethr =  1.00E-06,  avg # of iterations =  2.0

     Threshold (ethr) on eigenvalues was too large:
     Diagonalizing with lowered threshold

     Davidson diagonalization with overlap
     ethr =  7.98E-08,  avg # of iterations =  1.0

     negative rho (up, down):  0.737E-01 0.000E+00

     total cpu time spent up to now is      280.3 secs

     total energy              =    -285.96624350 Ry
     Harris-Foulkes estimate   =    -285.99683203 Ry
     estimated scf accuracy    <       0.00003238 Ry

     iteration #  2     ecut=    40.00 Ry     beta=0.15
     Davidson diagonalization with overlap
     ethr =  8.09E-08,  avg # of iterations =  3.0

     negative rho (up, down):  0.737E-01 0.000E+00

     total cpu time spent up to now is      286.1 secs

     End of self-consistent calculation

          k = 0.0834 0.0834 0.0834 (  1791 PWs)   bands (ev):

   -46.8350 -23.1530 -23.0854 -23.0854 -23.0586  -7.6186  -6.6711  -6.6711
    -5.0884  -5.0884  -5.0233   6.6690   6.8522   6.8522   8.1946   8.1946
     8.6200   8.8620   9.1035   9.1035  11.7803  11.8373  11.8373  14.1827

          k = 0.0834 0.0834 0.2502 (  1780 PWs)   bands (ev):

   -46.8347 -23.1846 -23.0882 -23.0842 -23.0400  -7.6410  -6.6426  -6.6400
    -5.0900  -5.0388  -4.8095   6.1507   6.7374   6.8449   7.5773   7.5785
     8.2427   8.4972   8.8047   8.9382  11.8703  12.5676  12.5721  14.1842

          k = 0.0834 0.0834 0.4169 (  1769 PWs)   bands (ev):

   -46.8344 -23.2150 -23.0838 -23.0830 -23.0296  -7.7347  -6.6133  -6.4791
    -5.0923  -5.0023  -4.6247   5.5452   6.6641   6.8786   6.9157   7.1298
     7.9830   8.2432   8.6336   8.8231  11.9303  13.2553  13.2626  14.1803

          k = 0.0834 0.2502 0.2502 (  1772 PWs)   bands (ev):

   -46.8344 -23.1800 -23.1101 -23.0841 -23.0385  -7.5192  -6.7353  -6.5799
    -5.0782  -4.9313  -4.7783   5.9098   6.3913   6.7273   6.7993   7.4077
     7.8910   8.5048   8.6076   8.9674  12.5442  12.6669  12.9053  14.6896

          k = 0.0834 0.2502 0.4169 (  1773 PWs)   bands (ev):

   -46.8341 -23.1891 -23.1108 -23.0822 -23.0461  -7.4817  -6.6681  -6.5576
    -5.0863  -4.8661  -4.7062   5.5000   5.9237   6.3335   6.8148   7.0230
     7.9268   8.2264   8.4839   9.0660  12.6418  13.2782  13.4023  14.7889

          k = 0.0834 0.4169 0.4169 (  1752 PWs)   bands (ev):

   -46.8338 -23.1545 -23.1347 -23.0811 -23.0742  -7.1519  -6.7887  -6.6397
    -5.0575  -4.7780  -4.7485   5.3253   5.4319   5.7132   6.8010   6.8892
     7.7791   8.2714   8.3217   9.5022  13.2806  13.3088  13.7033  14.9843

          k = 0.2502 0.2502 0.2502 (  1791 PWs)   bands (ev):

   -46.8341 -23.1679 -23.1088 -23.1088 -23.0433  -7.3481  -6.6337  -6.6337
    -5.0518  -5.0518  -4.7361   5.7437   6.3980   6.3980   6.8177   6.8177
     6.9301   8.7823   8.7823   9.0848  12.9404  13.0022  13.0022  15.9387

          k = 0.2502 0.2502 0.4169 (  1765 PWs)   bands (ev):

   -46.8338 -23.1691 -23.1109 -23.1075 -23.0569  -7.2311  -6.6244  -6.5134
    -5.1913  -4.9221  -4.7897   5.4825   5.9237   6.2911   6.3761   6.4999
     6.9952   8.7716   8.8919   9.1800  13.0536  13.4604  13.4834  15.9060

          k = 0.2502 0.4169 0.4169 (  1764 PWs)   bands (ev):

   -46.8335 -23.1447 -23.1333 -23.1070 -23.0756  -6.9049  -6.6290  -6.5045
    -5.2101  -5.0018  -4.9072   5.3727   5.7031   5.7222   6.3147   6.4035
     6.6280   8.9726   9.0198   9.5326  13.5305  13.5486  13.7860  16.2535

          k = 0.4169 0.4169 0.4169 (  1766 PWs)   bands (ev):

   -46.8332 -23.1345 -23.1319 -23.1319 -23.0780  -6.5916  -6.4117  -6.4117
    -5.2823  -5.2823  -5.1447   5.2764   5.7328   5.7328   5.9712   6.1044
     6.1044   9.4888   9.4888   9.5975  13.8574  13.8762  13.8762  16.8198

     the Fermi energy is    11.0733 ev

!    total energy              =    -285.96626057 Ry
     Harris-Foulkes estimate   =    -285.96626515 Ry
     estimated scf accuracy    <       0.00000494 Ry

     convergence has been achieved in   2 iterations

     Forces acting on atoms (Ry/au):


     negative rho (up, down):  0.737E-01 0.000E+00
     atom    1 type  2   force =     0.00000000    0.00000000    0.00000000
     atom    2 type  3   force =     0.00000000    0.00000000    0.00000000
     atom    3 type  1   force =     0.00000000    0.00000000    0.00000000
     atom    4 type  1   force =     0.00000000    0.00000000    0.00000000
     atom    5 type  1   force =     0.00000000    0.00000000    0.00000000

     Total force =     0.000000     Total SCF correction =     0.000000


     entering subroutine stress ...


     negative rho (up, down):  0.737E-01 0.000E+00
          total   stress  (Ry/bohr**3)                   (kbar)     P=  -17.86
  -0.00012140   0.00000000   0.00000000        -17.86      0.00      0.00
   0.00000000  -0.00012140   0.00000000          0.00    -17.86      0.00
   0.00000000   0.00000000  -0.00012140          0.00      0.00    -17.86


     Entering Dynamics;  it =     8   time =  0.00678 pico-seconds

  new lattice vectors (alat unit) :
   0.999189447   0.000000000   0.000000000
   0.000000000   0.999189447   0.000000000
   0.000000000   0.000000000   0.999189447
  new unit-cell volume =    413.0008 (a.u.)^3
  new positions in cryst coord
Sr       0.500000000   0.500000000   0.500000000
Ti       0.000000000   0.000000000   0.000000000
O        0.500000000   0.000000000   0.000000000
O        0.000000000   0.500000000   0.000000000
O        0.000000000   0.000000000   0.500000000
  new positions in cart coord (alat unit)
Sr       0.499594723   0.499594723   0.499594723
Ti       0.000000000   0.000000000   0.000000000
O        0.499594723   0.000000000   0.000000000
O        0.000000000   0.499594723   0.000000000
O        0.000000000   0.000000000   0.499594723

     Ekin =     0.00008356 Ry    T =    0.6 K  Etot =  -285.96617701
     new unit-cell volume =    413.00075 a.u.^3 (    61.20040 Ang^3 )

CELL_PARAMETERS (alat=  7.45307987)
   0.999189447   0.000000000   0.000000000
   0.000000000   0.999189447   0.000000000
   0.000000000   0.000000000   0.999189447

ATOMIC_POSITIONS (crystal)
Sr       0.500000000   0.500000000   0.500000000
Ti       0.000000000   0.000000000   0.000000000
O        0.500000000   0.000000000   0.000000000
O        0.000000000   0.500000000   0.000000000
O        0.000000000   0.000000000   0.500000000



     Writing output data file STO_lattice_constant.save
     Check: negative starting charge=   -0.071143
     NEW-OLD atomic charge density approx. for the potential
     NEW k-points:
        k(    1) = (   0.0834009   0.0834009   0.0834009), wk =   0.0740741
        k(    2) = (   0.0834009   0.0834009   0.2502028), wk =   0.2222222
        k(    3) = (   0.0834009   0.0834009   0.4170047), wk =   0.2222222
        k(    4) = (   0.0834009   0.2502028   0.2502028), wk =   0.2222222
        k(    5) = (   0.0834009   0.2502028   0.4170047), wk =   0.4444444
        k(    6) = (   0.0834009   0.4170047   0.4170047), wk =   0.2222222
        k(    7) = (   0.2502028   0.2502028   0.2502028), wk =   0.0740741
        k(    8) = (   0.2502028   0.2502028   0.4170047), wk =   0.2222222
        k(    9) = (   0.2502028   0.4170047   0.4170047), wk =   0.2222222
        k(   10) = (   0.4170047   0.4170047   0.4170047), wk =   0.0740741

     Check: negative/imaginary core charge=   -0.000038    0.000000
     Check: negative starting charge=   -0.071132

     negative rho (up, down):  0.737E-01 0.000E+00
     extrapolated charge   39.97748, renormalised to   40.00000

     total cpu time spent up to now is      304.7 secs

     per-process dynamical memory:    21.8 Mb

     Self-consistent Calculation

     iteration #  1     ecut=    40.00 Ry     beta=0.15
     Davidson diagonalization with overlap
     ethr =  1.00E-06,  avg # of iterations =  2.9

     negative rho (up, down):  0.737E-01 0.000E+00

     total cpu time spent up to now is      310.3 secs

     total energy              =    -285.96625829 Ry
     Harris-Foulkes estimate   =    -286.00216853 Ry
     estimated scf accuracy    <       0.00018640 Ry

     iteration #  2     ecut=    40.00 Ry     beta=0.15
     Davidson diagonalization with overlap
     ethr =  4.66E-07,  avg # of iterations =  2.6

     negative rho (up, down):  0.737E-01 0.000E+00

     total cpu time spent up to now is      314.9 secs

     total energy              =    -285.96628602 Ry
     Harris-Foulkes estimate   =    -285.96629173 Ry
     estimated scf accuracy    <       0.00003902 Ry

     iteration #  3     ecut=    40.00 Ry     beta=0.15
     Davidson diagonalization with overlap
     ethr =  9.75E-08,  avg # of iterations =  1.7

     negative rho (up, down):  0.737E-01 0.000E+00

     total cpu time spent up to now is      319.3 secs

     End of self-consistent calculation

          k = 0.0834 0.0834 0.0834 (  1791 PWs)   bands (ev):

   -46.8423 -23.1468 -23.0920 -23.0920 -23.0589  -7.6094  -6.6610  -6.6610
    -5.0764  -5.0764  -5.0111   6.6783   6.8615   6.8615   8.2047   8.2047
     8.6313   8.8730   9.1148   9.1148  11.7783  11.8356  11.8356  14.1816

          k = 0.0834 0.0834 0.2502 (  1780 PWs)   bands (ev):

   -46.8420 -23.1819 -23.0945 -23.0908 -23.0372  -7.6319  -6.6324  -6.6298
    -5.0780  -5.0267  -4.7969   6.1582   6.7460   6.8539   7.5861   7.5873
     8.2532   8.5080   8.8153   8.9492  11.8683  12.5672  12.5717  14.1831

          k = 0.0834 0.0834 0.4170 (  1769 PWs)   bands (ev):

   -46.8417 -23.2140 -23.0903 -23.0896 -23.0247  -7.7259  -6.6031  -6.4685
    -5.0802  -4.9901  -4.6118   5.5506   6.6724   6.8874   6.9245   7.1380
     7.9931   8.2534   8.6441   8.8340  11.9280  13.2555  13.2629  14.1793

          k = 0.0834 0.2502 0.2502 (  1772 PWs)   bands (ev):

   -46.8417 -23.1777 -23.1167 -23.0906 -23.0349  -7.5100  -6.7252  -6.5696
    -5.0662  -4.9190  -4.7657   5.9174   6.3977   6.7351   6.8078   7.4158
     7.9011   8.5158   8.6176   8.9791  12.5433  12.6666  12.9046  14.6898

          k = 0.0834 0.2502 0.4170 (  1773 PWs)   bands (ev):

   -46.8414 -23.1890 -23.1172 -23.0887 -23.0404  -7.4726  -6.6578  -6.5472
    -5.0742  -4.8536  -4.6935   5.5058   5.9306   6.3404   6.8229   7.0308
     7.9367   8.2369   8.4943   9.0777  12.6410  13.2784  13.4019  14.7893

          k = 0.0834 0.4170 0.4170 (  1752 PWs)   bands (ev):

   -46.8411 -23.1572 -23.1413 -23.0875 -23.0658  -7.1424  -6.7787  -6.6294
    -5.0454  -4.7654  -4.7358   5.3319   5.4385   5.7174   6.8086   6.8966
     7.7887   8.2822   8.3329   9.5147  13.2806  13.3089  13.7025  14.9853

          k = 0.2502 0.2502 0.2502 (  1791 PWs)   bands (ev):

[...]

     convergence has been achieved in   1 iterations

     Forces acting on atoms (Ry/au):


     negative rho (up, down):  0.739E-01 0.000E+00
     atom    1 type  2   force =     0.00000000    0.00000000    0.00000000
     atom    2 type  3   force =     0.00000000    0.00000000    0.00000000
     atom    3 type  1   force =     0.00000000    0.00000000    0.00000000
     atom    4 type  1   force =     0.00000000    0.00000000    0.00000000
     atom    5 type  1   force =     0.00000000    0.00000000    0.00000000

     Total force =     0.000000     Total SCF correction =     0.000000


     entering subroutine stress ...


     negative rho (up, down):  0.739E-01 0.000E+00
          total   stress  (Ry/bohr**3)                   (kbar)     P=   -5.78
  -0.00003929   0.00000000   0.00000000         -5.78      0.00      0.00
   0.00000000  -0.00003929   0.00000000          0.00     -5.78      0.00
   0.00000000   0.00000000  -0.00003929          0.00      0.00     -5.78


     Entering Dynamics;  it =    21   time =  0.01936 pico-seconds

  new lattice vectors (alat unit) :
   0.996391211   0.000000000   0.000000000
   0.000000000   0.996391211   0.000000000
   0.000000000   0.000000000   0.996391211
  new unit-cell volume =    409.5406 (a.u.)^3
  new positions in cryst coord
Sr       0.500000000   0.500000000   0.500000000
Ti       0.000000000   0.000000000   0.000000000
O        0.500000000   0.000000000   0.000000000
O        0.000000000   0.500000000   0.000000000
O        0.000000000   0.000000000   0.500000000
  new positions in cart coord (alat unit)
Sr       0.498195605   0.498195605   0.498195605
Ti       0.000000000   0.000000000   0.000000000
O        0.498195605   0.000000000   0.000000000
O        0.000000000   0.498195605   0.000000000
O        0.000000000   0.000000000   0.498195605

     Ekin =     0.00000007 Ry    T =    2.3 K  Etot =  -285.96641014
     new unit-cell volume =    409.54063 a.u.^3 (    60.68766 Ang^3 )

CELL_PARAMETERS (alat=  7.45307987)
   0.996391211   0.000000000   0.000000000
   0.000000000   0.996391211   0.000000000
   0.000000000   0.000000000   0.996391211

ATOMIC_POSITIONS (crystal)
Sr       0.500000000   0.500000000   0.500000000
Ti       0.000000000   0.000000000   0.000000000
O        0.500000000   0.000000000   0.000000000
O        0.000000000   0.500000000   0.000000000
O        0.000000000   0.000000000   0.500000000



     Writing output data file STO_lattice_constant.save
     Check: negative starting charge=   -0.070977
     NEW-OLD atomic charge density approx. for the potential
     NEW k-points:
        k(    1) = (   0.0836352   0.0836352   0.0836352), wk =   0.0740741
        k(    2) = (   0.0836352   0.0836352   0.2509055), wk =   0.2222222
        k(    3) = (   0.0836352   0.0836352   0.4181758), wk =   0.2222222
        k(    4) = (   0.0836352   0.2509055   0.2509055), wk =   0.2222222
        k(    5) = (   0.0836352   0.2509055   0.4181758), wk =   0.4444444
        k(    6) = (   0.0836352   0.4181758   0.4181758), wk =   0.2222222
        k(    7) = (   0.2509055   0.2509055   0.2509055), wk =   0.0740741
        k(    8) = (   0.2509055   0.2509055   0.4181758), wk =   0.2222222
        k(    9) = (   0.2509055   0.4181758   0.4181758), wk =   0.2222222
        k(   10) = (   0.4181758   0.4181758   0.4181758), wk =   0.0740741

     Check: negative/imaginary core charge=   -0.000038    0.000000
     Check: negative starting charge=   -0.070976

     negative rho (up, down):  0.739E-01 0.000E+00
     extrapolated charge   39.99954, renormalised to   40.00000

     total cpu time spent up to now is      712.1 secs

     per-process dynamical memory:    22.1 Mb

     Self-consistent Calculation

     iteration #  1     ecut=    40.00 Ry     beta=0.15
     Davidson diagonalization with overlap
     ethr =  1.00E-06,  avg # of iterations =  2.7

     negative rho (up, down):  0.739E-01 0.000E+00

     total cpu time spent up to now is      717.3 secs

     total energy              =    -285.96643424 Ry
     Harris-Foulkes estimate   =    -285.96718038 Ry
     estimated scf accuracy    <       0.00018379 Ry

     iteration #  2     ecut=    40.00 Ry     beta=0.15
     Davidson diagonalization with overlap
     ethr =  4.59E-07,  avg # of iterations =  1.0

     negative rho (up, down):  0.739E-01 0.000E+00

     total cpu time spent up to now is      721.7 secs

     total energy              =    -285.96639995 Ry
     Harris-Foulkes estimate   =    -285.96643634 Ry
     estimated scf accuracy    <       0.00010243 Ry

     iteration #  3     ecut=    40.00 Ry     beta=0.15
     Davidson diagonalization with overlap
     ethr =  2.56E-07,  avg # of iterations =  3.0

     negative rho (up, down):  0.739E-01 0.000E+00

     total cpu time spent up to now is      726.5 secs

     End of self-consistent calculation

          k = 0.0836 0.0836 0.0836 (  1791 PWs)   bands (ev):

   -46.6841 -23.0007 -22.9405 -22.9405 -22.9080  -7.5301  -6.5745  -6.5745
    -4.9341  -4.9341  -4.8671   6.7776   6.9639   6.9639   8.2964   8.2964
     8.7267   8.9836   9.2245   9.2245  11.9181  11.9758  11.9758  14.3646

          k = 0.0836 0.0836 0.2509 (  1780 PWs)   bands (ev):

   -46.6838 -23.0363 -22.9432 -22.9392 -22.8863  -7.5529  -6.5456  -6.5383
    -4.9353  -4.8835  -4.6508   6.2524   6.8434   6.9535   7.6752   7.6787
     8.3527   8.6020   8.9238   9.0565  12.0098  12.7171  12.7212  14.3668

          k = 0.0836 0.0836 0.4182 (  1769 PWs)   bands (ev):

   -46.6835 -23.0693 -22.9387 -22.9380 -22.8739  -7.6489  -6.5159  -6.3703
    -4.9371  -4.8458  -4.4632   5.6376   6.7614   6.9830   7.0161   7.2248
     8.0902   8.3446   8.7512   8.9397  12.0712  13.4156  13.4227  14.3632

          k = 0.0836 0.2509 0.2509 (  1772 PWs)   bands (ev):

   -46.6835 -23.0318 -22.9663 -22.9391 -22.8841  -7.4288  -6.6335  -6.4796
    -4.9231  -4.7769  -4.6182   6.0059   6.4933   6.8250   6.9021   7.5024
     8.0007   8.6156   8.7226   9.0800  12.6935  12.8182  13.0586  14.8789

          k = 0.0836 0.2509 0.4182 (  1773 PWs)   bands (ev):

   -46.6831 -23.0431 -22.9669 -22.9371 -22.8904  -7.3913  -6.5627  -6.4551
    -4.9310  -4.7094  -4.5470   5.5923   6.0094   6.4344   6.9133   7.1169
     8.0378   8.3364   8.5956   9.1792  12.7931  13.4390  13.5633  14.9799

          k = 0.0836 0.4182 0.4182 (  1752 PWs)   bands (ev):

   -46.6828 -23.0093 -22.9920 -22.9358 -22.9174  -7.0572  -6.6828  -6.5358
    -4.9009  -4.6220  -4.5910   5.4121   5.5208   5.8010   6.8933   6.9795
     7.8984   8.3813   8.4326   9.6202  13.4416  13.4703  13.8682  15.1789

          k = 0.2509 0.2509 0.2509 (  1791 PWs)   bands (ev):

   -46.6832 -23.0197 -22.9650 -22.9650 -22.8885  -7.2538  -6.5311  -6.5311
    -4.8993  -4.8993  -4.5751   5.8361   6.4992   6.4992   6.9112   6.9112
     7.0391   8.8944   8.8944   9.1971  13.0968  13.1572  13.1572  16.1394

          k = 0.2509 0.2509 0.4182 (  1765 PWs)   bands (ev):

   -46.6828 -23.0233 -22.9668 -22.9636 -22.9008  -7.1355  -6.5168  -6.4103
    -5.0405  -4.7678  -4.6314   5.5756   6.0101   6.3908   6.4711   6.5984
     7.0980   8.8818   9.0056   9.2933  13.2112  13.6239  13.6457  16.1065

          k = 0.2509 0.4182 0.4182 (  1764 PWs)   bands (ev):

   -46.6825 -23.0002 -22.9905 -22.9629 -22.9176  -6.8038  -6.5213  -6.3985
    -5.0597  -4.8505  -4.7528   5.4703   5.7897   5.8100   6.4095   6.4968
     6.7320   9.0852   9.1335   9.6509  13.6953  13.7134  13.9532  16.4551

          k = 0.4182 0.4182 0.4182 (  1766 PWs)   bands (ev):

   -46.6822 -22.9912 -22.9890 -22.9890 -22.9183  -6.4841  -6.3024  -6.3024
    -5.1355  -5.1355  -4.9956   5.3791   5.8207   5.8207   6.0636   6.1990
     6.1990   9.6068   9.6068   9.7165  14.0270  14.0457  14.0457  16.9878

     the Fermi energy is    11.2396 ev

!    total energy              =    -285.96641661 Ry
     Harris-Foulkes estimate   =    -285.96641973 Ry
     estimated scf accuracy    <       0.00000381 Ry

     convergence has been achieved in   3 iterations

     Forces acting on atoms (Ry/au):


     negative rho (up, down):  0.739E-01 0.000E+00
     atom    1 type  2   force =     0.00000000    0.00000000    0.00000000
     atom    2 type  3   force =     0.00000000    0.00000000    0.00000000
     atom    3 type  1   force =     0.00000000    0.00000000    0.00000000
     atom    4 type  1   force =     0.00000000    0.00000000    0.00000000
     atom    5 type  1   force =     0.00000000    0.00000000    0.00000000

     Total force =     0.000000     Total SCF correction =     0.000000


     entering subroutine stress ...


     negative rho (up, down):  0.739E-01 0.000E+00
          total   stress  (Ry/bohr**3)                   (kbar)     P=    5.81
   0.00003953   0.00000000   0.00000000          5.81      0.00      0.00
   0.00000000   0.00003953   0.00000000          0.00      5.81      0.00
   0.00000000   0.00000000   0.00003953          0.00      0.00      5.81


     Entering Dynamics;  it =    22   time =  0.02033 pico-seconds

  new lattice vectors (alat unit) :
   0.996400416   0.000000000   0.000000000
   0.000000000   0.996400416   0.000000000
   0.000000000   0.000000000   0.996400416
  new unit-cell volume =    409.5520 (a.u.)^3
  new positions in cryst coord
Sr       0.500000000   0.500000000   0.500000000
Ti       0.000000000   0.000000000   0.000000000
O        0.500000000   0.000000000   0.000000000
O        0.000000000   0.500000000   0.000000000
O        0.000000000   0.000000000   0.500000000
  new positions in cart coord (alat unit)
Sr       0.498200208   0.498200208   0.498200208
Ti       0.000000000   0.000000000   0.000000000
O        0.498200208   0.000000000   0.000000000
O        0.000000000   0.498200208   0.000000000
O        0.000000000   0.000000000   0.498200208

     Ekin =     0.00000002 Ry    T =    2.2 K  Etot =  -285.96641658
     new unit-cell volume =    409.55198 a.u.^3 (    60.68934 Ang^3 )

CELL_PARAMETERS (alat=  7.45307987)
   0.996400416   0.000000000   0.000000000
   0.000000000   0.996400416   0.000000000
   0.000000000   0.000000000   0.996400416

ATOMIC_POSITIONS (crystal)
Sr       0.500000000   0.500000000   0.500000000
Ti       0.000000000   0.000000000   0.000000000
O        0.500000000   0.000000000   0.000000000
O        0.000000000   0.500000000   0.000000000
O        0.000000000   0.000000000   0.500000000



     Writing output data file STO_lattice_constant.save
     Check: negative starting charge=   -0.070976
     NEW-OLD atomic charge density approx. for the potential
     NEW k-points:
        k(    1) = (   0.0836344   0.0836344   0.0836344), wk =   0.0740741
        k(    2) = (   0.0836344   0.0836344   0.2509031), wk =   0.2222222
        k(    3) = (   0.0836344   0.0836344   0.4181719), wk =   0.2222222
        k(    4) = (   0.0836344   0.2509031   0.2509031), wk =   0.2222222
        k(    5) = (   0.0836344   0.2509031   0.4181719), wk =   0.4444444
        k(    6) = (   0.0836344   0.4181719   0.4181719), wk =   0.2222222
        k(    7) = (   0.2509031   0.2509031   0.2509031), wk =   0.0740741
        k(    8) = (   0.2509031   0.2509031   0.4181719), wk =   0.2222222
        k(    9) = (   0.2509031   0.4181719   0.4181719), wk =   0.2222222
        k(   10) = (   0.4181719   0.4181719   0.4181719), wk =   0.0740741

     Check: negative/imaginary core charge=   -0.000038    0.000000
     Check: negative starting charge=   -0.070977

     negative rho (up, down):  0.739E-01 0.000E+00
     extrapolated charge   40.00108, renormalised to   40.00000

     total cpu time spent up to now is      743.0 secs

     per-process dynamical memory:    22.1 Mb

     Self-consistent Calculation

     iteration #  1     ecut=    40.00 Ry     beta=0.15
     Davidson diagonalization with overlap
     ethr =  1.00E-06,  avg # of iterations =  2.0

     Threshold (ethr) on eigenvalues was too large:
     Diagonalizing with lowered threshold

     Davidson diagonalization with overlap
     ethr =  6.94E-08,  avg # of iterations =  1.0

     negative rho (up, down):  0.739E-01 0.000E+00

     total cpu time spent up to now is      752.9 secs

     total energy              =    -285.96642148 Ry
     Harris-Foulkes estimate   =    -285.96471876 Ry
     estimated scf accuracy    <       0.00002823 Ry

     iteration #  2     ecut=    40.00 Ry     beta=0.15
     Davidson diagonalization with overlap
     ethr =  7.06E-08,  avg # of iterations =  1.0

     negative rho (up, down):  0.739E-01 0.000E+00

     total cpu time spent up to now is      756.9 secs

     End of self-consistent calculation

          k = 0.0836 0.0836 0.0836 (  1791 PWs)   bands (ev):

   -46.6868 -23.0041 -22.9428 -22.9428 -22.9109  -7.5209  -6.5643  -6.5643
    -4.9376  -4.9376  -4.8705   6.7855   6.9721   6.9721   8.3051   8.3051
     8.7365   8.9938   9.2350   9.2350  11.9173  11.9752  11.9752  14.3641

          k = 0.0836 0.0836 0.2509 (  1780 PWs)   bands (ev):

   -46.6864 -23.0394 -22.9454 -22.9415 -22.8895  -7.5446  -6.5352  -6.5288
    -4.9389  -4.8867  -4.6529   6.2600   6.8513   6.9615   7.6828   7.6866
     8.3618   8.6112   8.9337   9.0668  12.0091  12.7174  12.7215  14.3663

          k = 0.0836 0.0836 0.4182 (  1769 PWs)   bands (ev):

   -46.6861 -23.0722 -22.9410 -22.9402 -22.8772  -7.6414  -6.5054  -6.3609
    -4.9409  -4.8489  -4.4645   5.6452   6.7686   6.9909   7.0237   7.2319
     8.0985   8.3531   8.7611   8.9500  12.0704  13.4164  13.4235  14.3628

          k = 0.0836 0.2509 0.2509 (  1772 PWs)   bands (ev):

   -46.6861 -23.0348 -22.9685 -22.9414 -22.8873  -7.4207  -6.6251  -6.4694
    -4.9267  -4.7786  -4.6203   6.0130   6.5011   6.8324   6.9096   7.5096
     8.0096   8.6249   8.7321   9.0900  12.6935  12.8187  13.0582  14.8790

          k = 0.0836 0.2509 0.4182 (  1773 PWs)   bands (ev):

   -46.6858 -23.0459 -22.9691 -22.9394 -22.8938  -7.3837  -6.5545  -6.4452
    -4.9348  -4.7109  -4.5481   5.5998   6.0157   6.4422   6.9206   7.1238
     8.0467   8.3452   8.6050   9.1891  12.7932  13.4397  13.5630  14.9801

          k = 0.0836 0.4182 0.4182 (  1752 PWs)   bands (ev):

   -46.6855 -23.0119 -22.9942 -22.9380 -22.9211  -7.0488  -6.6759  -6.5269
    -4.9047  -4.6223  -4.5916   5.4186   5.5277   5.8085   6.9000   6.9860
     7.9078   8.3902   8.4415   9.6308  13.4422  13.4709  13.8674  15.1791

          k = 0.2509 0.2509 0.2509 (  1791 PWs)   bands (ev):

   -46.6858 -23.0227 -22.9672 -22.9672 -22.8918  -7.2459  -6.5220  -6.5220
    -4.9017  -4.9017  -4.5769   5.8430   6.5069   6.5069   6.9180   6.9180
     7.0475   8.9040   8.9040   9.2074  13.0965  13.1572  13.1572  16.1409

          k = 0.2509 0.2509 0.4182 (  1765 PWs)   bands (ev):

   -46.6855 -23.0259 -22.9691 -22.9658 -22.9043  -7.1278  -6.5088  -6.4001
    -5.0440  -4.7693  -4.6329   5.5831   6.0165   6.3981   6.4776   6.6060
     7.1057   8.8913   9.0151   9.3035  13.2113  13.6238  13.6457  16.1080

          k = 0.2509 0.4182 0.4182 (  1764 PWs)   bands (ev):

   -46.6852 -23.0026 -22.9927 -22.9651 -22.9214  -6.7956  -6.5135  -6.3888
    -5.0633  -4.8517  -4.7541   5.4781   5.7957   5.8175   6.4161   6.5030
     6.7400   9.0950   9.1434   9.6616  13.6955  13.7137  13.9528  16.4563

          k = 0.4182 0.4182 0.4182 (  1766 PWs)   bands (ev):

   -46.6849 -22.9934 -22.9912 -22.9912 -22.9223  -6.4755  -6.2927  -6.2927
    -5.1386  -5.1386  -4.9977   5.3872   5.8281   5.8281   6.0696   6.2050
     6.2050   9.6173   9.6173   9.7274  14.0270  14.0457  14.0457  16.9871

     the Fermi energy is    11.2387 ev

!    total energy              =    -285.96640771 Ry
     Harris-Foulkes estimate   =    -285.96642182 Ry
     estimated scf accuracy    <       0.00001596 Ry

     convergence has been achieved in   2 iterations

     Forces acting on atoms (Ry/au):


     negative rho (up, down):  0.739E-01 0.000E+00
     atom    1 type  2   force =     0.00000000    0.00000000    0.00000000
     atom    2 type  3   force =     0.00000000    0.00000000    0.00000000
     atom    3 type  1   force =     0.00000000    0.00000000    0.00000000
     atom    4 type  1   force =     0.00000000    0.00000000    0.00000000
     atom    5 type  1   force =     0.00000000    0.00000000    0.00000000

     Total force =     0.000000     Total SCF correction =     0.000000


     entering subroutine stress ...


     negative rho (up, down):  0.739E-01 0.000E+00
          total   stress  (Ry/bohr**3)                   (kbar)     P=    0.24
   0.00000162   0.00000000   0.00000000          0.24      0.00      0.00
   0.00000000   0.00000162   0.00000000          0.00      0.24      0.00
   0.00000000   0.00000000   0.00000162          0.00      0.00      0.24


     Parrinello-Rahman Damped Cell Dynamics Minimization:
     convergence achieved, Efinal=  -285.96640771

------------------------------------------------------------------------

     Final estimate of lattice vectors (input alat units)
   0.996400416   0.000000000   0.000000000
   0.000000000   0.996400416   0.000000000
   0.000000000   0.000000000   0.996400416
  final unit-cell volume =    409.5520 (a.u.)^3
  input alat =       7.4531 (a.u.)
Begin final coordinates
     new unit-cell volume =    409.55198 a.u.^3 (    60.68934 Ang^3 )

CELL_PARAMETERS (alat=  7.45307987)
   0.996400416   0.000000000   0.000000000
   0.000000000   0.996400416   0.000000000
   0.000000000   0.000000000   0.996400416

ATOMIC_POSITIONS (crystal)
Sr       0.500000000   0.500000000   0.500000000
Ti       0.000000000   0.000000000   0.000000000
O        0.500000000   0.000000000   0.000000000
O        0.000000000   0.500000000   0.000000000
O        0.000000000   0.000000000   0.500000000
End final coordinates



     Writing output data file STO_lattice_constant.save
 
     init_run     :     10.15s CPU      6.64s WALL (       1 calls)
     electrons    :    609.40s CPU    358.63s WALL (      23 calls)
     update_pot   :     90.42s CPU     78.94s WALL (      22 calls)
     forces       :    128.42s CPU     87.96s WALL (      23 calls)
     stress       :    330.45s CPU    216.38s WALL (      23 calls)

     Called by init_run:
     wfcinit      :      1.63s CPU      0.74s WALL (       1 calls)
     potinit      :      1.92s CPU      1.43s WALL (       1 calls)

     Called by electrons:
     c_bands      :    293.88s CPU    164.33s WALL (      72 calls)
     sum_band     :    144.86s CPU     83.70s WALL (      72 calls)
     v_of_rho     :     16.87s CPU     10.17s WALL (      90 calls)
     newd         :    137.97s CPU     80.00s WALL (      90 calls)
     mix_rho      :     11.83s CPU      7.08s WALL (      72 calls)

     Called by c_bands:
     init_us_2    :     22.64s CPU     12.94s WALL (     573 calls)
     cegterg      :    256.93s CPU    141.18s WALL (     216 calls)

     Called by *egterg:
     h_psi        :    200.71s CPU    104.88s WALL (     661 calls)
     s_psi        :     21.40s CPU     12.50s WALL (     661 calls)
     g_psi        :      0.36s CPU      0.31s WALL (     442 calls)
     cdiaghg      :      4.10s CPU      2.60s WALL (     577 calls)

     Called by h_psi:
     add_vuspsi   :     26.00s CPU     14.20s WALL (     661 calls)

     General routines
     calbec       :     41.35s CPU     23.18s WALL (    1015 calls)
     fft          :     30.83s CPU     16.10s WALL (    1965 calls)
     ffts         :      9.36s CPU      5.79s WALL (    1134 calls)
     fftw         :    157.25s CPU     83.70s WALL (   31462 calls)
     interpolate  :      2.97s CPU      1.86s WALL (     162 calls)
     davcio       :      1.87s CPU      1.55s WALL (     792 calls)
 
     Parallel routines
     fft_scatter  :     25.30s CPU     13.40s WALL (   34561 calls)
 
     PWSCF        : 20m11.65s CPU    12m50.56s WALL

 
   This run was terminated on:  15:10:36  17Dec2013            

=------------------------------------------------------------------------------=
   JOB DONE.
=------------------------------------------------------------------------------=
