
     Program PWSCF v.5.0.2 (svn rev. 9656) starts on 16Dec2013 at 19:15:10 

     This program is part of the open-source Quantum ESPRESSO suite
     for quantum simulation of materials; please cite
         "P. Giannozzi et al., J. Phys.:Condens. Matter 21 395502 (2009);
          URL http://www.quantum-espresso.org", 
     in publications or presentations arising from this work. More details at
     http://www.quantum-espresso.org/quote.php

     Parallel version (MPI & OpenMP), running on      16 processor cores
     Number of MPI processes:                 2
     Threads/MPI process:                     8
     K-points division:     npool     =       2

     Current dimensions of program PWSCF are:
     Max number of different atomic species (ntypx) = 10
     Max number of k-points (npk) =  40000
     Max angular momentum in pseudopotentials (lmaxx) =  3
     Reading input from STO.in

     Subspace diagonalization in iterative solution of the eigenvalue problem:
     a serial algorithm will be used

     Message from routine setup:
     Dynamics, you should have no symmetries
 
     G-vector sticks info
     --------------------
     sticks:   dense  smooth     PW     G-vecs:    dense   smooth      PW
     Sum         885     709    213                19837    14147    2325
 

     Title: 
     YBCO_STO_PBE_from_GBRV                                                     


     bravais-lattice index     =            1
     lattice parameter (alat)  =       7.4531  a.u.
     unit-cell volume          =     414.0067 (a.u.)^3
     number of atoms/cell      =            5
     number of atomic types    =            3
     number of electrons       =        40.00
     number of Kohn-Sham states=           24
     kinetic-energy cutoff     =      40.0000  Ry
     charge density cutoff     =     200.0000  Ry
     convergence threshold     =      2.0E-05
     mixing beta               =       0.1500
     number of iterations used =            8  local-TF  mixing
     Exchange-correlation      = SLA  PW   PBE  PBE ( 1 4 3 4 0)
     EXX-fraction              =        0.00
     nstep                     =          100


     celldm(1)=   7.453080  celldm(2)=   0.000000  celldm(3)=   0.000000
     celldm(4)=   0.000000  celldm(5)=   0.000000  celldm(6)=   0.000000

     crystal axes: (cart. coord. in units of alat)
               a(1) = (   1.000000   0.000000   0.000000 )  
               a(2) = (   0.000000   1.000000   0.000000 )  
               a(3) = (   0.000000   0.000000   1.000000 )  

     reciprocal axes: (cart. coord. in units 2 pi/alat)
               b(1) = (  1.000000  0.000000  0.000000 )  
               b(2) = (  0.000000  1.000000  0.000000 )  
               b(3) = (  0.000000  0.000000  1.000000 )  


     PseudoPot. # 1 for O  read from file:
     ../pbe/o_pbe_v1.01.uspp.F.UPF
     MD5 check sum: 2bcb18d16ea4b960afae9ec6d52f22d2
     Pseudo is Ultrasoft + core correction, Zval =  6.0
     Generated by new atomic code, or converted to UPF format
     Using radial grid of  737 points,  5 beta functions with: 
                l(1) =   0
                l(2) =   0
                l(3) =   1
                l(4) =   1
                l(5) =   2
     Q(r) pseudized with  8 coefficients,  rinner =    0.900   0.900   0.900
                                                       0.900   0.900

     PseudoPot. # 2 for Sr read from file:
     ../pbe/sr_pbe_v1.uspp.F.UPF
     MD5 check sum: 6b418c05fbe9db5448babca5e47b7a5b
     Pseudo is Ultrasoft + core correction, Zval = 10.0
     Generated by new atomic code, or converted to UPF format
     Using radial grid of  883 points,  6 beta functions with: 
                l(1) =   0
                l(2) =   0
                l(3) =   1
                l(4) =   1
                l(5) =   2
                l(6) =   2
     Q(r) pseudized with  6 coefficients,  rinner =    1.400   1.400   1.400
                                                       1.400   1.400

     PseudoPot. # 3 for Ti read from file:
     ../pbe/ti_pbe_v1.uspp.F.UPF
     MD5 check sum: bcc8f6961b3b91f0cac3ca967d22d0fb
     Pseudo is Ultrasoft + core correction, Zval = 12.0
     Generated by new atomic code, or converted to UPF format
     Using radial grid of  851 points,  6 beta functions with: 
                l(1) =   0
                l(2) =   0
                l(3) =   1
                l(4) =   1
                l(5) =   2
                l(6) =   2
     Q(r) pseudized with  6 coefficients,  rinner =    1.000   1.000   1.000
                                                       1.000   1.000

     atomic species   valence    mass     pseudopotential
        O              6.00    15.99940     O ( 1.00)
        Sr            10.00    87.62000     Sr( 1.00)
        Ti            12.00    47.88000     Ti( 1.00)

      cell mass =  13.94419 AMU 

     48 Sym. Ops., with inversion, found



   Cartesian axes

     site n.     atom                  positions (alat units)
         1           Sr  tau(   1) = (   0.5000000   0.5000000   0.5000000  )
         2           Ti  tau(   2) = (   0.0000000   0.0000000   0.0000000  )
         3           O   tau(   3) = (   0.5000000   0.0000000   0.0000000  )
         4           O   tau(   4) = (   0.0000000   0.5000000   0.0000000  )
         5           O   tau(   5) = (   0.0000000   0.0000000   0.5000000  )

     number of k points=    10  gaussian smearing, width (Ry)=  0.0100
                       cart. coord. in units 2pi/alat
        k(    1) = (   0.0833333   0.0833333   0.0833333), wk =   0.0740741
        k(    2) = (   0.0833333   0.0833333   0.2500000), wk =   0.2222222
        k(    3) = (   0.0833333   0.0833333   0.4166667), wk =   0.2222222
        k(    4) = (   0.0833333   0.2500000   0.2500000), wk =   0.2222222
        k(    5) = (   0.0833333   0.2500000   0.4166667), wk =   0.4444444
        k(    6) = (   0.0833333   0.4166667   0.4166667), wk =   0.2222222
        k(    7) = (   0.2500000   0.2500000   0.2500000), wk =   0.0740741
        k(    8) = (   0.2500000   0.2500000   0.4166667), wk =   0.2222222
        k(    9) = (   0.2500000   0.4166667   0.4166667), wk =   0.2222222
        k(   10) = (   0.4166667   0.4166667   0.4166667), wk =   0.0740741

     Dense  grid:    19837 G-vectors     FFT dimensions: (  36,  36,  36)

     Smooth grid:    14147 G-vectors     FFT dimensions: (  32,  32,  32)

     Largest allocated arrays     est. size (Mb)     dimensions
        Kohn-Sham Wavefunctions         0.66 Mb     (   1791,   24)
        NL pseudopotentials             2.05 Mb     (   1791,   75)
        Each V/rho on FFT grid          0.71 Mb     (  46656)
        Each G-vector array             0.15 Mb     (  19837)
        G-vector shells                 0.15 Mb     (  19837)
     Largest temporary arrays     est. size (Mb)     dimensions
        Auxiliary wavefunctions         2.62 Mb     (   1791,   96)
        Each subspace H/S matrix        0.14 Mb     (  96,  96)
        Each <psi_i|beta_j> matrix      0.03 Mb     (     75,   24)
        Arrays for rho mixing           5.70 Mb     (  46656,   8)
     writing wfc files to a dedicated directory

     Check: negative/imaginary core charge=   -0.000038    0.000000

     Initial potential from superposition of free atoms
     Check: negative starting charge=   -0.071177

     starting charge   38.96630, renormalised to   40.00000

     negative rho (up, down):  0.731E-01 0.000E+00
     Starting wfc are   35 randomized atomic wfcs

     total cpu time spent up to now is       13.0 secs

     per-process dynamical memory:    24.3 Mb

     Self-consistent Calculation

     iteration #  1     ecut=    40.00 Ry     beta=0.15
     Davidson diagonalization with overlap
     ethr =  1.00E-02,  avg # of iterations =  1.9

     negative rho (up, down):  0.724E-01 0.000E+00

     total cpu time spent up to now is       26.9 secs

     total energy              =    -286.13338251 Ry
     Harris-Foulkes estimate   =    -286.22369794 Ry
     estimated scf accuracy    <       0.93289672 Ry

     iteration #  2     ecut=    40.00 Ry     beta=0.15
     Davidson diagonalization with overlap
     ethr =  2.33E-03,  avg # of iterations =  1.0

     negative rho (up, down):  0.693E-01 0.000E+00

     total cpu time spent up to now is       39.9 secs

     total energy              =    -285.89017137 Ry
     Harris-Foulkes estimate   =    -286.15133494 Ry
     estimated scf accuracy    <       0.64447923 Ry

     iteration #  3     ecut=    40.00 Ry     beta=0.15
     Davidson diagonalization with overlap
     ethr =  1.61E-03,  avg # of iterations =  2.9

     negative rho (up, down):  0.695E-01 0.000E+00

     total cpu time spent up to now is       51.1 secs

     total energy              =    -286.02000384 Ry
     Harris-Foulkes estimate   =    -286.03137016 Ry
     estimated scf accuracy    <       0.23182910 Ry

     iteration #  4     ecut=    40.00 Ry     beta=0.15
     Davidson diagonalization with overlap
     ethr =  5.80E-04,  avg # of iterations =  1.0

     negative rho (up, down):  0.675E-01 0.000E+00

     total cpu time spent up to now is       60.4 secs

     total energy              =    -285.98271267 Ry
     Harris-Foulkes estimate   =    -286.02355207 Ry
     estimated scf accuracy    <       0.15809822 Ry

     iteration #  5     ecut=    40.00 Ry     beta=0.15
     Davidson diagonalization with overlap
     ethr =  3.95E-04,  avg # of iterations =  1.8

     negative rho (up, down):  0.677E-01 0.000E+00

     total cpu time spent up to now is       71.2 secs

     total energy              =    -285.94414101 Ry
     Harris-Foulkes estimate   =    -285.99283191 Ry
     estimated scf accuracy    <       0.14278664 Ry

     iteration #  6     ecut=    40.00 Ry     beta=0.15
     Davidson diagonalization with overlap
     ethr =  3.57E-04,  avg # of iterations =  2.5

     negative rho (up, down):  0.668E-01 0.000E+00

     total cpu time spent up to now is       81.9 secs

     total energy              =    -285.96492792 Ry
     Harris-Foulkes estimate   =    -285.96466347 Ry
     estimated scf accuracy    <       0.00374296 Ry

     iteration #  7     ecut=    40.00 Ry     beta=0.15
     Davidson diagonalization with overlap
     ethr =  9.36E-06,  avg # of iterations =  3.5

     negative rho (up, down):  0.723E-01 0.000E+00

     total cpu time spent up to now is       94.8 secs

     total energy              =    -285.96448715 Ry
     Harris-Foulkes estimate   =    -285.96619062 Ry
     estimated scf accuracy    <       0.00724819 Ry

     iteration #  8     ecut=    40.00 Ry     beta=0.15
     Davidson diagonalization with overlap
     ethr =  9.36E-06,  avg # of iterations =  3.3

     negative rho (up, down):  0.744E-01 0.000E+00

     total cpu time spent up to now is      107.8 secs

     total energy              =    -285.96616967 Ry
     Harris-Foulkes estimate   =    -285.96638274 Ry
     estimated scf accuracy    <       0.00226032 Ry

     iteration #  9     ecut=    40.00 Ry     beta=0.15
     Davidson diagonalization with overlap
     ethr =  5.65E-06,  avg # of iterations =  2.1

     negative rho (up, down):  0.740E-01 0.000E+00

     total cpu time spent up to now is      118.5 secs

     total energy              =    -285.96611499 Ry
     Harris-Foulkes estimate   =    -285.96632553 Ry
     estimated scf accuracy    <       0.00095762 Ry

     iteration # 10     ecut=    40.00 Ry     beta=0.15
     Davidson diagonalization with overlap
     ethr =  2.39E-06,  avg # of iterations =  2.0

     negative rho (up, down):  0.741E-01 0.000E+00

     total cpu time spent up to now is      128.9 secs

          k = 0.0833 0.0833 0.0833     band energies (ev):

   -46.8202 -23.2022 -23.0720 -23.0720 -23.0583  -7.6298  -6.6828  -6.6828
    -5.1435  -5.1435  -5.0787   6.6554   6.8388   6.8388   8.1813   8.1813
     8.6050   8.8480   9.0891   9.0891  11.7830  11.8396  11.8396  14.1833

          k = 0.0833 0.0833 0.2500     band energies (ev):

   -46.8199 -23.2201 -23.0768 -23.0708 -23.0514  -7.6539  -6.6540  -6.6538
    -5.1455  -5.0936  -4.8626   6.1415   6.7257   6.8322   7.5656   7.5668
     8.2284   8.4828   8.7912   8.9244  11.8733  12.5679  12.5722  14.1847

          k = 0.0833 0.0833 0.4167     band energies (ev):

   -46.8196 -23.2410 -23.0712 -23.0696 -23.0517  -7.7491  -6.6245  -6.4940
    -5.1483  -5.0572  -4.6767   5.5416   6.6528   6.8666   6.9036   7.1187
     7.9687   8.2294   8.6204   8.8095  11.9337  13.2546  13.2618  14.1808

          k = 0.0833 0.2500 0.2500     band energies (ev):

   -46.8196 -23.2137 -23.0967 -23.0716 -23.0530  -7.5330  -6.7514  -6.5919
    -5.1338  -4.9826  -4.8319   5.8998   6.3852   6.7178   6.7872   7.3969
     7.8774   8.4896   8.5950   8.9518  12.5450  12.6672  12.9051  14.6876

          k = 0.0833 0.2500 0.4167     band energies (ev):

   -46.8193 -23.2145 -23.0983 -23.0715 -23.0660  -7.4966  -6.6851  -6.5706
    -5.1422  -4.9175  -4.7575   5.4952   5.9150   6.3263   6.8039   7.0124
     7.9134   8.2118   8.4703   9.0502  12.6427  13.2776  13.4018  14.7865

          k = 0.0833 0.4167 0.4167     band energies (ev):

   -46.8190 -23.1779 -23.1212 -23.1004 -23.0673  -7.1664  -6.8083  -6.6549
    -5.1140  -4.8266  -4.7981   5.3178   5.4244   5.7129   6.7909   6.8793
     7.7669   8.2559   8.3053   9.4856  13.2802  13.3083  13.7029  14.9804

          k = 0.2500 0.2500 0.2500     band energies (ev):

   -46.8193 -23.2009 -23.0954 -23.0954 -23.0593  -7.3630  -6.6485  -6.6485
    -5.1041  -5.1041  -4.7894   5.7336   6.3915   6.3915   6.8076   6.8076
     6.9187   8.7670   8.7670   9.0691  12.9410  13.0019  13.0019  15.9333

          k = 0.2500 0.2500 0.4167     band energies (ev):

   -46.8190 -23.1932 -23.1004 -23.0941 -23.0790  -7.2470  -6.6421  -6.5260
    -5.2455  -4.9726  -4.8413   5.4767   5.9158   6.2816   6.3658   6.4938
     6.9846   8.7566   8.8756   9.1643  13.0537  13.4599  13.4828  15.9003

          k = 0.2500 0.4167 0.4167     band energies (ev):

   -46.8188 -23.1646 -23.1198 -23.1060 -23.0924  -6.9209  -6.6472  -6.5186
    -5.2644  -5.0509  -4.9573   5.3652   5.6931   5.7219   6.3048   6.3922
     6.6203   8.9567   9.0036   9.5161  13.5299  13.5480  13.7856  16.2428

          k = 0.4167 0.4167 0.4167     band energies (ev):

   -46.8185 -23.1476 -23.1184 -23.1184 -23.1142  -6.6078  -6.4262  -6.4262
    -5.3343  -5.3343  -5.1952   5.2667   5.7326   5.7326   5.9597   6.0923
     6.0923   9.4723   9.4723   9.5810  13.8566  13.8756  13.8757  16.7840

     the Fermi energy is    11.0422 ev

     total energy              =    -285.96615598 Ry
     Harris-Foulkes estimate   =    -285.96618742 Ry
     estimated scf accuracy    <       0.00016038 Ry

     iteration # 11     ecut=    40.00 Ry     beta=0.15
     Davidson diagonalization with overlap

===================================================================================
=   BAD TERMINATION OF ONE OF YOUR APPLICATION PROCESSES
=   EXIT CODE: 9
=   CLEANING UP REMAINING PROCESSES
=   YOU CAN IGNORE THE BELOW CLEANUP MESSAGES
===================================================================================
YOUR APPLICATION TERMINATED WITH THE EXIT STRING: Killed (signal 9)
This typically refers to a problem with your application.
Please see the FAQ page for debugging suggestions
