
     Program PWSCF v.5.0.2 (svn rev. 9656) starts on 13Dec2013 at 18:58:36 

     This program is part of the open-source Quantum ESPRESSO suite
     for quantum simulation of materials; please cite
         "P. Giannozzi et al., J. Phys.:Condens. Matter 21 395502 (2009);
          URL http://www.quantum-espresso.org", 
     in publications or presentations arising from this work. More details at
     http://www.quantum-espresso.org/quote.php

     Parallel version (MPI & OpenMP), running on      32 processor cores
     Number of MPI processes:                 4
     Threads/MPI process:                     8
     K-points division:     npool     =       4

     Current dimensions of program PWSCF are:
     Max number of different atomic species (ntypx) = 10
     Max number of k-points (npk) =  40000
     Max angular momentum in pseudopotentials (lmaxx) =  3
     Reading input from YBCO_STO.pw.in
Warning: card CU    0.000000    0.000000   19.488379 0 0 1 ignored
Warning: card CU    0.000000    0.000000   31.330379 0 0 1 ignored
Warning: card CU    0.000000    0.000000   43.172379 0 0 1 ignored
Warning: card CU    0.000000    0.000000   55.014378 0 0 1 ignored
Warning: card  O    0.000000    0.000000   25.569246 0 0 1 ignored
Warning: card  O    0.000000    0.000000   37.411247 0 0 1 ignored
Warning: card  O    0.000000    0.000000   49.253250 0 0 1 ignored
Warning: card  O    0.000000    0.000000   61.095249 0 0 1 ignored
Warning: card  O    0.000000    0.000000   21.798754 0 0 1 ignored
Warning: card  O    0.000000    0.000000   33.640755 0 0 1 ignored
Warning: card  O    0.000000    0.000000   45.482754 0 0 1 ignored
Warning: card  O    0.000000    0.000000   57.324753 0 0 1 ignored
Warning: card  O    1.972000    0.000000   16.299328 0 0 1 ignored
Warning: card  O    1.972000    0.000000   28.141329 0 0 1 ignored
Warning: card  O    1.972000    0.000000   39.983330 0 0 1 ignored
Warning: card  O    1.972000    0.000000   51.825329 0 0 1 ignored
Warning: card  O    1.972000    0.000000   63.667328 0 0 1 ignored
Warning: card  O    1.972000    0.000000   19.226671 0 0 1 ignored
Warning: card  O    1.972000    0.000000   31.068672 0 0 1 ignored
Warning: card  O    1.972000    0.000000   42.910671 0 0 1 ignored
Warning: card  O    1.972000    0.000000   54.752670 0 0 1 ignored
Warning: card  O    0.000000    1.972000   16.309986 0 0 1 ignored
Warning: card  O    0.000000    1.972000   28.151987 0 0 1 ignored
Warning: card  O    0.000000    1.972000   39.993988 0 0 1 ignored
Warning: card  O    0.000000    1.972000   51.835983 0 0 1 ignored
Warning: card  O    0.000000    1.972000   63.677982 0 0 1 ignored
Warning: card  O    0.000000    1.972000   19.216013 0 0 1 ignored
Warning: card  O    0.000000    1.972000   31.058014 0 0 1 ignored
Warning: card  O    0.000000    1.972000   42.900013 0 0 1 ignored
Warning: card  O    0.000000    1.972000   54.742012 0 0 1 ignored
Warning: card  O    0.000000    1.972000   23.684000 0 0 1 ignored
Warning: card  O    0.000000    1.972000   35.526001 0 0 1 ignored
Warning: card  O    0.000000    1.972000   47.368000 0 0 1 ignored
Warning: card  O    0.000000    1.972000   59.209999 0 0 1 ignored
Warning: card SR    1.972000    1.972000    1.972000 0 0 1 ignored
Warning: card SR    1.972000    1.972000    5.916000 0 0 1 ignored
Warning: card SR    1.972000    1.972000    9.860000 0 0 1 ignored
Warning: card SR    1.972000    1.972000   13.804000 0 0 1 ignored
Warning: card TI    0.000000    0.000000    0.000000 0 0 1 ignored
Warning: card TI    0.000000    0.000000    3.944000 0 0 1 ignored
Warning: card TI    0.000000    0.000000    7.888000 0 0 1 ignored
Warning: card TI    0.000000    0.000000   11.832000 0 0 1 ignored
Warning: card  O    1.972000    0.000000    0.000000 0 0 1 ignored
Warning: card  O    1.972000    0.000000    3.944000 0 0 1 ignored
Warning: card  O    1.972000    0.000000    7.888000 0 0 1 ignored
Warning: card  O    1.972000    0.000000   11.832000 0 0 1 ignored
Warning: card  O    0.000000    1.972000    0.000000 0 0 1 ignored
Warning: card  O    0.000000    1.972000    3.944000 0 0 1 ignored
Warning: card  O    0.000000    1.972000    7.888000 0 0 1 ignored
Warning: card  O    0.000000    1.972000   11.832000 0 0 1 ignored
Warning: card  O    0.000000    0.000000    1.972000 0 0 1 ignored
Warning: card  O    0.000000    0.000000    5.916000 0 0 1 ignored
Warning: card  O    0.000000    0.000000    9.860000 0 0 1 ignored
Warning: card  O    0.000000    0.000000   13.804000 0 0 1 ignored

     Subspace diagonalization in iterative solution of the eigenvalue problem:
     a serial algorithm will be used

     Message from routine setup:
     Dynamics, you should have no symmetries
 
     G-vector sticks info
     --------------------
     sticks:   dense  smooth     PW     G-vecs:    dense   smooth      PW
     Sum         885     709    213               392013   279895   43893
 

     Title: 
     YBCO_STO_PBE_from_GBRV                                                     


     bravais-lattice index     =            8
     lattice parameter (alat)  =       7.4531  a.u.
     unit-cell volume          =    8202.8743 (a.u.)^3
     number of atoms/cell      =           21
     number of atomic types    =            6
     number of electrons       =       295.00
     number of Kohn-Sham states=          178
     kinetic-energy cutoff     =      40.0000  Ry
     charge density cutoff     =     200.0000  Ry
     convergence threshold     =      2.0E-05
     mixing beta               =       0.1500
     number of iterations used =            8  local-TF  mixing
     Exchange-correlation      = SLA  PW   PBE  PBE ( 1 4 3 4 0)
     EXX-fraction              =        0.00
     nstep                     =          100


     celldm(1)=   7.453080  celldm(2)=   1.000000  celldm(3)=  19.813387
     celldm(4)=   0.000000  celldm(5)=   0.000000  celldm(6)=   0.000000

     crystal axes: (cart. coord. in units of alat)
               a(1) = (   1.000000   0.000000   0.000000 )  
               a(2) = (   0.000000   1.000000   0.000000 )  
               a(3) = (   0.000000   0.000000  19.813387 )  

     reciprocal axes: (cart. coord. in units 2 pi/alat)
               b(1) = (  1.000000  0.000000  0.000000 )  
               b(2) = (  0.000000  1.000000  0.000000 )  
               b(3) = (  0.000000  0.000000  0.050471 )  


     PseudoPot. # 1 for Ba read from file:
     ../pbe/ba_pbe_v1.uspp.F.UPF
     MD5 check sum: 3380f63c22b3abf76d74aa74136bb909
     Pseudo is Ultrasoft + core correction, Zval = 10.0
     Generated by new atomic code, or converted to UPF format
     Using radial grid of  907 points,  7 beta functions with: 
                l(1) =   0
                l(2) =   0
                l(3) =   1
                l(4) =   1
                l(5) =   2
                l(6) =   2
                l(7) =   3
     Q(r) pseudized with  6 coefficients,  rinner =    1.700   1.700   1.700
                                                       1.700   1.700   1.700
                                                       1.700

     PseudoPot. # 2 for Y  read from file:
     ../pbe/y_pbe_v1.uspp.F.UPF
     MD5 check sum: 2cf71db95cafeb975fc457bd7f14888e
     Pseudo is Ultrasoft + core correction, Zval = 11.0
     Generated by new atomic code, or converted to UPF format
     Using radial grid of  885 points,  6 beta functions with: 
                l(1) =   0
                l(2) =   0
                l(3) =   1
                l(4) =   1
                l(5) =   2
                l(6) =   2
     Q(r) pseudized with  6 coefficients,  rinner =    1.200   1.200   1.200
                                                       1.200   1.200

     PseudoPot. # 3 for Cu read from file:
     ../pbe/cu_pbe_v1.uspp.F.UPF
     MD5 check sum: dd7df6c276b3c1af358798b42dbd4e5a
     Pseudo is Ultrasoft + core correction, Zval = 19.0
     Generated by new atomic code, or converted to UPF format
     Using radial grid of  867 points,  6 beta functions with: 
                l(1) =   0
                l(2) =   0
                l(3) =   1
                l(4) =   1
                l(5) =   2
                l(6) =   2
     Q(r) pseudized with  8 coefficients,  rinner =    1.100   1.100   1.100
                                                       1.100   1.100

     PseudoPot. # 4 for O  read from file:
     ../pbe/o_pbe_v1.01.uspp.F.UPF
     MD5 check sum: 2bcb18d16ea4b960afae9ec6d52f22d2
     Pseudo is Ultrasoft + core correction, Zval =  6.0
     Generated by new atomic code, or converted to UPF format
     Using radial grid of  737 points,  5 beta functions with: 
                l(1) =   0
                l(2) =   0
                l(3) =   1
                l(4) =   1
                l(5) =   2
     Q(r) pseudized with  8 coefficients,  rinner =    0.900   0.900   0.900
                                                       0.900   0.900

     PseudoPot. # 5 for Sr read from file:
     ../pbe/sr_pbe_v1.uspp.F.UPF
     MD5 check sum: 6b418c05fbe9db5448babca5e47b7a5b
     Pseudo is Ultrasoft + core correction, Zval = 10.0
     Generated by new atomic code, or converted to UPF format
     Using radial grid of  883 points,  6 beta functions with: 
                l(1) =   0
                l(2) =   0
                l(3) =   1
                l(4) =   1
                l(5) =   2
                l(6) =   2
     Q(r) pseudized with  6 coefficients,  rinner =    1.400   1.400   1.400
                                                       1.400   1.400

     PseudoPot. # 6 for Ti read from file:
     ../pbe/ti_pbe_v1.uspp.F.UPF
     MD5 check sum: bcc8f6961b3b91f0cac3ca967d22d0fb
     Pseudo is Ultrasoft + core correction, Zval = 12.0
     Generated by new atomic code, or converted to UPF format
     Using radial grid of  851 points,  6 beta functions with: 
                l(1) =   0
                l(2) =   0
                l(3) =   1
                l(4) =   1
                l(5) =   2
                l(6) =   2
     Q(r) pseudized with  6 coefficients,  rinner =    1.000   1.000   1.000
                                                       1.000   1.000

     atomic species   valence    mass     pseudopotential
        Ba            10.00   137.32700     Ba( 1.00)
        Y             11.00    88.90585     Y ( 1.00)
        Cu            19.00    63.54600     Cu( 1.00)
        O              6.00    15.99940     O ( 1.00)
        Sr            10.00    87.62000     Sr( 1.00)
        Ti            12.00    47.88000     Ti( 1.00)

      cell mass = 153.96920 AMU 

      8 Sym. Ops. (no inversion) found



   Cartesian axes

     site n.     atom                  positions (alat units)
         1           Ba  tau(   1) = (   0.5000000   0.5000000   6.5545355  )
         2           Ba  tau(   2) = (   0.5000000   0.5000000   9.5570712  )
         3           Ba  tau(   3) = (   0.5000000   0.5000000  12.5596065  )
         4           Ba  tau(   4) = (   0.5000000   0.5000000  15.5621417  )
         5           Ba  tau(   5) = (   0.5000000   0.5000000   5.4556065  )
         6           Ba  tau(   6) = (   0.5000000   0.5000000   8.4581422  )
         7           Ba  tau(   7) = (   0.5000000   0.5000000  11.4606775  )
         8           Ba  tau(   8) = (   0.5000000   0.5000000  14.4632130  )
         9           Y   tau(   9) = (   0.5000000   0.5000000   4.5038032  )
        10           Y   tau(  10) = (   0.5000000   0.5000000   7.5063387  )
        11           Y   tau(  11) = (   0.5000000   0.5000000  10.5088740  )
        12           Y   tau(  12) = (   0.5000000   0.5000000  13.5114100  )
        13           Cu  tau(  13) = (   0.0000000   0.0000000   6.0050710  )
        14           Cu  tau(  14) = (   0.0000000   0.0000000   9.0076067  )
        15           Cu  tau(  15) = (   0.0000000   0.0000000  12.0101420  )
        16           Cu  tau(  16) = (   0.0000000   0.0000000  15.0126772  )
        17           Cu  tau(  17) = (   0.0000000   0.0000000   4.0663339  )
        18           Cu  tau(  18) = (   0.0000000   0.0000000   7.0688697  )
        19           Cu  tau(  19) = (   0.0000000   0.0000000  10.0714052  )
        20           Cu  tau(  20) = (   0.0000000   0.0000000  13.0739407  )
        21           Cu  tau(  21) = (   0.0000000   0.0000000  16.0764759  )

     number of k points=     6  gaussian smearing, width (Ry)=  0.0100
                       cart. coord. in units 2pi/alat
        k(    1) = (   0.0833333   0.0833333   0.0126177), wk =   0.2222222
        k(    2) = (   0.0833333   0.2500000   0.0126177), wk =   0.4444444
        k(    3) = (   0.0833333   0.4166667   0.0126177), wk =   0.4444444
        k(    4) = (   0.2500000   0.2500000   0.0126177), wk =   0.2222222
        k(    5) = (   0.2500000   0.4166667   0.0126177), wk =   0.4444444
        k(    6) = (   0.4166667   0.4166667   0.0126177), wk =   0.2222222

     Dense  grid:   392013 G-vectors     FFT dimensions: (  36,  36, 675)

     Smooth grid:   279895 G-vectors     FFT dimensions: (  32,  32, 600)

     Largest allocated arrays     est. size (Mb)     dimensions
        Kohn-Sham Wavefunctions        95.66 Mb     (  35219,  178)
        NL pseudopotentials           233.23 Mb     (  35219,  434)
        Each V/rho on FFT grid         13.35 Mb     ( 874800)
        Each G-vector array             2.99 Mb     ( 392013)
        G-vector shells                 2.99 Mb     ( 392013)
     Largest temporary arrays     est. size (Mb)     dimensions
        Auxiliary wavefunctions       382.63 Mb     (  35219,  712)
        Each subspace H/S matrix        7.74 Mb     ( 712, 712)
        Each <psi_i|beta_j> matrix      1.18 Mb     (    434,  178)
        Arrays for rho mixing         106.79 Mb     ( 874800,   8)
     writing wfc files to a dedicated directory

     Check: negative/imaginary core charge=   -0.000009    0.000000

     Initial potential from superposition of free atoms
     Check: negative starting charge=   -0.935242

     starting charge  285.86211, renormalised to  295.00000

     negative rho (up, down):  0.965E+00 0.000E+00
     Starting wfc are  273 randomized atomic wfcs

     total cpu time spent up to now is      263.5 secs

     per-process dynamical memory:   988.3 Mb

     Self-consistent Calculation

     iteration #  1     ecut=    40.00 Ry     beta=0.15
     Davidson diagonalization with overlap
     ethr =  1.00E-02,  avg # of iterations = 10.3

     negative rho (up, down):  0.143E+01 0.000E+00

     total cpu time spent up to now is     1052.4 secs

     total energy              =   -4542.18658007 Ry
     Harris-Foulkes estimate   =   -4668.75820779 Ry
     estimated scf accuracy    <   51190.59533042 Ry

     iteration #  2     ecut=    40.00 Ry     beta=0.15
     Davidson diagonalization with overlap
     ethr =  1.00E-02,  avg # of iterations = 11.3

     negative rho (up, down):  0.224E+01 0.000E+00

     total cpu time spent up to now is     1638.7 secs

     total energy              =   -4518.04636675 Ry
     Harris-Foulkes estimate   =   -4587.82273968 Ry
     estimated scf accuracy    <   21546.36975364 Ry

     iteration #  3     ecut=    40.00 Ry     beta=0.15
     Davidson diagonalization with overlap
     ethr =  1.00E-02,  avg # of iterations =  6.3

     negative rho (up, down):  0.259E+01 0.000E+00

     total cpu time spent up to now is     2206.5 secs

     total energy              =   -4546.86561398 Ry
     Harris-Foulkes estimate   =   -4558.93233074 Ry
     estimated scf accuracy    <    3251.61427266 Ry

     iteration #  4     ecut=    40.00 Ry     beta=0.15
     Davidson diagonalization with overlap
     ethr =  1.00E-02,  avg # of iterations =  4.0

     negative rho (up, down):  0.289E+01 0.000E+00

     total cpu time spent up to now is     2550.5 secs

     total energy              =   -4537.68850337 Ry
     Harris-Foulkes estimate   =   -4549.63274026 Ry
     estimated scf accuracy    <    1672.35143869 Ry

     iteration #  5     ecut=    40.00 Ry     beta=0.15
     Davidson diagonalization with overlap
     ethr =  1.00E-02,  avg # of iterations =  4.0

     negative rho (up, down):  0.278E+01 0.000E+00

     total cpu time spent up to now is     2903.1 secs

     total energy              =   -4539.67998984 Ry
     Harris-Foulkes estimate   =   -4541.15124478 Ry
     estimated scf accuracy    <     631.91062016 Ry

     iteration #  6     ecut=    40.00 Ry     beta=0.15
     Davidson diagonalization with overlap
     ethr =  1.00E-02,  avg # of iterations =  2.2

     negative rho (up, down):  0.219E+01 0.000E+00

     total cpu time spent up to now is     3236.7 secs

     total energy              =   -4532.55857571 Ry
     Harris-Foulkes estimate   =   -4539.97383354 Ry
     estimated scf accuracy    <     489.83112521 Ry

     iteration #  7     ecut=    40.00 Ry     beta=0.15
     Davidson diagonalization with overlap
     ethr =  1.00E-02,  avg # of iterations =  3.8

     negative rho (up, down):  0.195E+01 0.000E+00

     total cpu time spent up to now is     3593.2 secs

     total energy              =   -4532.56447568 Ry
     Harris-Foulkes estimate   =   -4534.14973468 Ry
     estimated scf accuracy    <     160.56148809 Ry

     iteration #  8     ecut=    40.00 Ry     beta=0.15
     Davidson diagonalization with overlap
     ethr =  1.00E-02,  avg # of iterations =  2.0

     negative rho (up, down):  0.150E+01 0.000E+00

     total cpu time spent up to now is     3930.7 secs

     total energy              =   -4529.34915046 Ry
     Harris-Foulkes estimate   =   -4533.02180019 Ry
     estimated scf accuracy    <     125.44424042 Ry

     iteration #  9     ecut=    40.00 Ry     beta=0.15
     Davidson diagonalization with overlap
     ethr =  1.00E-02,  avg # of iterations =  3.0

     negative rho (up, down):  0.156E+01 0.000E+00

     total cpu time spent up to now is     4279.6 secs

     total energy              =   -4528.49038320 Ry
     Harris-Foulkes estimate   =   -4530.11763803 Ry
     estimated scf accuracy    <      80.89113923 Ry

     iteration # 10     ecut=    40.00 Ry     beta=0.15
     Davidson diagonalization with overlap
     ethr =  1.00E-02,  avg # of iterations =  5.0

     negative rho (up, down):  0.152E+01 0.000E+00

     total cpu time spent up to now is     4640.4 secs

          k = 0.0833 0.0833 0.0126     band energies (ev):

  -120.7497-119.4369-118.9181-118.6699-118.5023-118.4400-118.2392-117.9409
  -116.4707 -78.3033 -78.3033 -78.2858 -76.8813 -76.8598 -76.8598 -76.3882
   -76.3698 -76.3698 -76.2053 -76.1858 -76.1858 -75.9493 -75.9493 -75.9272
   -75.8949 -75.8541 -75.8541 -75.7664 -75.7664 -75.7533 -75.3630 -75.3568
   -75.3568 -73.9610 -73.9610 -73.8389 -50.9790 -50.5959 -50.1056 -49.7409
   -37.1322 -36.9881 -36.8599 -36.0259 -35.5051 -35.3992 -35.0746 -33.7236
   -31.0615 -30.9756 -30.9749 -30.6428 -30.5853 -30.5845 -30.0136 -29.9884
   -29.9879 -29.7724 -29.5764 -29.5759 -22.6086 -22.2104 -22.1463 -22.1362
   -21.9702 -21.9282 -21.9207 -21.8186 -21.8116 -21.2825 -21.0191 -21.0089
   -20.8115 -20.6104 -20.4365 -20.4235 -20.3710 -20.3625 -20.2721 -19.9077
   -19.9008 -18.9609 -18.7556 -18.7444 -13.6975 -12.4928 -12.3860 -11.8857
   -11.7217 -11.5863 -11.5770 -11.5563 -11.2574 -11.1861 -10.5380 -10.3263
    -9.9955  -9.9478  -9.9096  -9.7963  -9.7664  -9.7169  -9.6858  -9.6681
    -9.5822  -9.5582  -9.5482  -9.5174  -9.4467  -9.4372  -9.4313  -9.4046
    -9.3581  -9.3513  -9.2953  -9.2119  -9.1034  -9.0933  -9.0879  -9.0499
    -8.9716  -8.8569  -8.8510  -8.8292  -8.8258  -8.8213  -8.6884  -8.6823
    -8.6367  -8.5281  -8.3937  -8.3675  -8.2977  -8.1998  -8.1928  -8.1475
    -8.1005  -7.6886  -7.5383  -7.1200  -7.0148  -6.8272  -6.8113  -6.7930
    -6.6824  -6.6798  -6.3951  -6.3639  -6.1000  -6.0049  -5.8733  -5.7936
    -5.7512  -5.7295  -5.7000  -5.3338  -5.3016  -4.8380  -4.7399  -4.5989
    -4.5289  -4.4108  -4.2522  -4.1071  -4.0339  -3.9576  -3.8407  -3.4670
    -3.3105  -3.2726  -2.9471  -2.8657  -2.7659  -2.4765  -2.0670  -1.9084
    -1.7013  -1.5212

          k = 0.0833 0.2500 0.0126     band energies (ev):

  -120.7497-119.4369-118.9181-118.6699-118.5023-118.4400-118.2392-117.9409
  -116.4707 -78.3033 -78.3033 -78.2858 -76.8813 -76.8599 -76.8598 -76.3881
   -76.3699 -76.3698 -76.2053 -76.1859 -76.1858 -75.9494 -75.9493 -75.9272
   -75.8949 -75.8542 -75.8541 -75.7665 -75.7664 -75.7533 -75.3630 -75.3569
   -75.3568 -73.9610 -73.9610 -73.8389 -50.9763 -50.5932 -50.1031 -49.7384
   -37.1041 -36.9612 -36.8337 -35.9986 -35.4793 -35.3715 -35.0494 -33.6962
   -31.0562 -31.0271 -30.9708 -30.6391 -30.6348 -30.5804 -30.0351 -30.0087
   -29.9841 -29.7675 -29.6238 -29.5721 -22.5540 -22.5000 -22.2699 -22.1614
   -22.1386 -22.1051 -21.9265 -21.8922 -21.7837 -21.3619 -21.2321 -20.9787
   -20.7902 -20.7501 -20.6956 -20.5687 -20.3948 -20.3337 -20.2341 -20.2173
   -19.8737 -19.1005 -18.9106 -18.7135 -13.2021 -12.1296 -11.8134 -11.7708
   -11.6373 -11.6202 -11.5998 -11.5893 -10.8372 -10.5998 -10.1796  -9.9331
    -9.8898  -9.8406  -9.7921  -9.7755  -9.7629  -9.7269  -9.6032  -9.5408
    -9.5165  -9.5114  -9.4589  -9.4505  -9.4434  -9.4308  -9.3982  -9.3636
    -9.3356  -9.2394  -9.1605  -9.1169  -9.0826  -9.0289  -8.9056  -8.8888
    -8.8724  -8.8711  -8.8409  -8.7895  -8.7514  -8.7106  -8.6890  -8.6691
    -8.4645  -8.3432  -8.3180  -8.2908  -8.2592  -8.2051  -8.1883  -8.1613
    -7.6871  -7.6728  -7.0973  -6.9785  -6.9313  -6.8834  -6.8194  -6.7340
    -6.7108  -6.6957  -6.6586  -6.6353  -6.3341  -6.2367  -6.0981  -5.8882
    -5.8536  -5.7856  -5.7409  -5.5091  -5.2368  -5.1583  -5.0099  -4.8477
    -4.7519  -4.6503  -4.5088  -4.2866  -4.1621  -4.0885  -3.9059  -3.8468
    -3.7096  -3.6631  -3.4684  -3.3131  -3.0590  -2.9111  -2.5991  -2.2358
    -2.0957  -1.9530

          k = 0.0833 0.4167 0.0126     band energies (ev):

  -120.7496-119.4369-118.9181-118.6699-118.5023-118.4400-118.2392-117.9409
  -116.4707 -78.3034 -78.3033 -78.2858 -76.8813 -76.8599 -76.8598 -76.3881
   -76.3699 -76.3698 -76.2052 -76.1859 -76.1858 -75.9494 -75.9493 -75.9272
   -75.8949 -75.8542 -75.8541 -75.7666 -75.7664 -75.7533 -75.3630 -75.3569
   -75.3568 -73.9610 -73.9610 -73.8389 -50.9735 -50.5905 -50.1007 -49.7359
   -37.0756 -36.9340 -36.8073 -35.9709 -35.4531 -35.3434 -35.0239 -33.6675
   -31.0786 -31.0504 -30.9659 -30.6877 -30.6316 -30.5757 -30.0815 -30.0039
   -29.9802 -29.7626 -29.6708 -29.5680 -22.8326 -22.5807 -22.4870 -22.4358
   -22.1206 -22.0686 -21.8828 -21.8580 -21.7521 -21.6789 -21.1805 -21.1031
   -20.9972 -20.9432 -20.7009 -20.5271 -20.5132 -20.3600 -20.3005 -20.1878
   -19.8429 -19.4198 -18.8599 -18.6772 -12.7245 -11.7250 -11.6645 -11.6294
   -11.6038 -11.4827 -11.3424 -11.0938 -10.4391 -10.0955 -10.0521  -9.9197
    -9.8518  -9.7904  -9.7773  -9.7163  -9.6997  -9.6464  -9.5949  -9.4914
    -9.4881  -9.4652  -9.4355  -9.4071  -9.3820  -9.3698  -9.3530  -9.2105
    -9.1798  -9.1616  -9.1362  -9.0705  -9.0604  -9.0282  -8.9220  -8.8956
    -8.8636  -8.8266  -8.7329  -8.7106  -8.7035  -8.7006  -8.6856  -8.6796
    -8.6488  -8.4118  -8.3276  -8.2364  -8.2255  -8.2196  -8.0642  -8.0086
    -7.9333  -7.8025  -7.4296  -7.3361  -7.0112  -7.0054  -6.9179  -6.8405
    -6.7440  -6.7364  -6.7198  -6.6470  -6.3512  -6.1932  -6.1064  -6.0264
    -5.7186  -5.6002  -5.5652  -5.2803  -5.2052  -5.0792  -4.9858  -4.7231
    -4.6468  -4.5078  -4.3832  -4.1952  -4.0410  -3.9186  -3.8668  -3.7201
    -3.5831  -3.5152  -2.9775  -2.8602  -2.7526  -2.5346  -2.3804  -2.2634
    -2.1099  -1.9368

          k = 0.2500 0.2500 0.0126     band energies (ev):

  -120.7496-119.4369-118.9181-118.6699-118.5023-118.4400-118.2392-117.9409
  -116.4707 -78.3033 -78.3033 -78.2858 -76.8813 -76.8598 -76.8598 -76.3881
   -76.3699 -76.3699 -76.2053 -76.1859 -76.1858 -75.9494 -75.9494 -75.9272
   -75.8949 -75.8541 -75.8541 -75.7665 -75.7665 -75.7533 -75.3630 -75.3569
   -75.3569 -73.9610 -73.9610 -73.8389 -50.9735 -50.5905 -50.1007 -49.7359
   -37.0764 -36.9346 -36.8079 -35.9717 -35.4538 -35.3441 -35.0245 -33.6686
   -31.0509 -31.0230 -31.0210 -30.6351 -30.6303 -30.6296 -30.0315 -30.0295
   -30.0040 -29.7628 -29.6201 -29.6181 -22.5054 -22.4660 -22.4353 -22.2425
   -22.2072 -22.1171 -22.1119 -22.0850 -21.8857 -21.3332 -21.2969 -21.1854
   -20.7601 -20.7203 -20.7023 -20.6680 -20.6373 -20.5293 -20.2014 -20.1846
   -20.1696 -19.0711 -19.0345 -18.8642 -12.7589 -11.7443 -11.6812 -11.6476
   -11.6343 -11.6273 -11.5344 -11.3490 -10.4553 -10.1551  -9.8690  -9.8426
    -9.8251  -9.7999  -9.7860  -9.7806  -9.6421  -9.5666  -9.5330  -9.5119
    -9.4938  -9.4924  -9.4466  -9.4249  -9.4192  -9.3996  -9.3867  -9.3298
    -9.2913  -9.2828  -9.2747  -9.2049  -8.9381  -8.9352  -8.9093  -8.8723
    -8.8637  -8.7723  -8.7573  -8.7453  -8.6862  -8.6736  -8.6422  -8.6160
    -8.2664  -8.2582  -8.2506  -8.2402  -8.2384  -8.1319  -7.8642  -7.7571
    -7.3960  -7.3588  -7.0772  -6.9423  -6.9142  -6.8631  -6.8475  -6.7476
    -6.7108  -6.6840  -6.6617  -6.5758  -6.3995  -6.2938  -6.1584  -5.9330
    -5.8681  -5.8042  -5.5332  -5.4535  -5.3882  -5.3623  -5.2776  -5.1388
    -5.0301  -4.8779  -4.8719  -4.7174  -4.5870  -4.4562  -4.4126  -3.9926
    -3.9435  -3.7944  -3.7247  -3.6097  -3.4024  -3.3247  -3.1849  -3.1580
    -3.0123  -2.9693

          k = 0.2500 0.4167 0.0126     band energies (ev):

  -120.7496-119.4369-118.9181-118.6699-118.5023-118.4400-118.2392-117.9409
  -116.4707 -78.3034 -78.3033 -78.2858 -76.8813 -76.8599 -76.8598 -76.3881
   -76.3699 -76.3699 -76.2052 -76.1859 -76.1859 -75.9494 -75.9494 -75.9272
   -75.8949 -75.8542 -75.8541 -75.7666 -75.7665 -75.7533 -75.3630 -75.3569
   -75.3569 -73.9610 -73.9610 -73.8389 -50.9709 -50.5878 -50.0982 -49.7334
   -37.0485 -36.9078 -36.7819 -35.9445 -35.4281 -35.3164 -34.9993 -33.6410
   -31.0726 -31.0453 -31.0165 -30.6816 -30.6278 -30.6245 -30.0763 -30.0259
   -29.9994 -29.7581 -29.6655 -29.6144 -22.7743 -22.5292 -22.4423 -22.4029
   -22.3892 -22.1815 -22.0784 -22.0577 -21.8446 -21.6233 -21.2671 -21.1376
   -21.0499 -20.9471 -20.6940 -20.6542 -20.6092 -20.4890 -20.4681 -20.1529
   -20.1410 -19.3641 -19.0034 -18.8159 -12.3468 -11.7174 -11.6726 -11.6549
   -11.6314 -11.4305 -10.9252 -10.7285 -10.2082  -9.8794  -9.8594  -9.8444
    -9.8032  -9.7866  -9.6476  -9.5776  -9.5661  -9.5283  -9.5058  -9.4859
    -9.4633  -9.4443  -9.4330  -9.4166  -9.3291  -9.2884  -9.2490  -9.2174
    -9.2102  -9.1412  -9.0674  -8.9929  -8.9523  -8.8907  -8.8519  -8.8498
    -8.7915  -8.7754  -8.7255  -8.6874  -8.6442  -8.5382  -8.4217  -8.4069
    -8.3530  -8.2923  -8.2896  -8.2684  -8.2645  -8.2633  -7.8810  -7.8557
    -7.7788  -7.5977  -7.4013  -7.3181  -7.2138  -6.8956  -6.8736  -6.8718
    -6.8416  -6.8180  -6.7925  -6.7081  -6.6928  -6.3847  -6.1385  -6.1092
    -5.9582  -5.8375  -5.7906  -5.5935  -5.3436  -5.2528  -5.1883  -5.0749
    -4.7750  -4.6130  -4.3363  -4.2626  -4.0067  -3.8651  -3.8298  -3.7964
    -3.6933  -3.4861  -3.4394  -3.3048  -2.8066  -2.7160  -2.6516  -2.6013
    -2.4661  -2.2832

          k = 0.4167 0.4167 0.0126     band energies (ev):

  -120.7496-119.4369-118.9181-118.6699-118.5023-118.4400-118.2392-117.9409
  -116.4707 -78.3034 -78.3034 -78.2858 -76.8813 -76.8599 -76.8599 -76.3881
   -76.3699 -76.3699 -76.2052 -76.1859 -76.1859 -75.9494 -75.9494 -75.9272
   -75.8949 -75.8542 -75.8542 -75.7666 -75.7666 -75.7533 -75.3630 -75.3569
   -75.3569 -73.9610 -73.9610 -73.8389 -50.9682 -50.5852 -50.0958 -49.7310
   -37.0210 -36.8814 -36.7562 -35.9178 -35.4027 -35.2891 -34.9745 -33.6127
   -31.0667 -31.0662 -31.0400 -30.6759 -30.6750 -30.6217 -30.0713 -30.0708
   -29.9949 -29.7535 -29.6605 -29.6600 -22.7185 -22.7094 -22.4795 -22.4716
   -22.3916 -22.3444 -22.3382 -22.0407 -21.8062 -21.5703 -21.5620 -21.0942
   -20.9997 -20.9923 -20.8990 -20.8917 -20.6121 -20.4506 -20.4247 -20.4188
   -20.1134 -19.3103 -19.3023 -18.7719 -12.0959 -11.7717 -11.6794 -11.6694
   -11.4544 -11.3752 -10.5706 -10.5131  -9.9864  -9.9229  -9.8807  -9.8348
    -9.8028  -9.6870  -9.6024  -9.6002  -9.5566  -9.5243  -9.4882  -9.4756
    -9.4694  -9.4194  -9.3009  -9.2804  -9.2623  -9.2511  -9.2064  -9.1040
    -9.0983  -9.0567  -9.0404  -8.9468  -8.9269  -8.8801  -8.8407  -8.7906
    -8.7805  -8.7452  -8.6987  -8.5351  -8.5266  -8.5174  -8.4875  -8.4545
    -8.4030  -8.3354  -8.3089  -8.2967  -8.2926  -8.1413  -8.0559  -7.9163
    -7.7418  -7.7017  -7.5730  -7.5151  -7.4306  -7.2435  -7.0140  -6.9070
    -6.8507  -6.8380  -6.8037  -6.7184  -6.6745  -6.6257  -6.4048  -6.2209
    -6.1633  -6.1165  -5.9843  -5.8670  -5.5700  -5.2196  -5.1175  -5.0874
    -5.0252  -4.9404  -4.7669  -4.5915  -4.3028  -4.1703  -4.1016  -3.9380
    -3.4984  -3.4352  -3.3558  -3.2910  -3.0370  -2.5476  -2.2020  -2.1724
    -2.0384  -1.9198

     the Fermi energy is    -6.6034 ev

     total energy              =   -4528.46485172 Ry
     Harris-Foulkes estimate   =   -4530.11248638 Ry
     estimated scf accuracy    <      89.51589277 Ry

     iteration # 11     ecut=    40.00 Ry     beta=0.15
     Davidson diagonalization with overlap
     ethr =  1.00E-02,  avg # of iterations =  2.0

     negative rho (up, down):  0.141E+01 0.000E+00

     total cpu time spent up to now is     4992.3 secs

     total energy              =   -4529.33027537 Ry
     Harris-Foulkes estimate   =   -4530.05709207 Ry
     estimated scf accuracy    <      35.77334319 Ry

     iteration # 12     ecut=    40.00 Ry     beta=0.15
     Davidson diagonalization with overlap
     ethr =  1.00E-02,  avg # of iterations =  1.3

     negative rho (up, down):  0.137E+01 0.000E+00

     total cpu time spent up to now is     5346.7 secs

     total energy              =   -4529.23181847 Ry
     Harris-Foulkes estimate   =   -4529.49325085 Ry
     estimated scf accuracy    <      16.30580924 Ry

     iteration # 13     ecut=    40.00 Ry     beta=0.15
     Davidson diagonalization with overlap
     ethr =  5.53E-03,  avg # of iterations =  1.5

     negative rho (up, down):  0.134E+01 0.000E+00

     total cpu time spent up to now is     5685.6 secs

     total energy              =   -4529.12616461 Ry
     Harris-Foulkes estimate   =   -4529.33495228 Ry
     estimated scf accuracy    <       7.68045541 Ry

     iteration # 14     ecut=    40.00 Ry     beta=0.15
     Davidson diagonalization with overlap
     ethr =  2.60E-03,  avg # of iterations =  6.3

     negative rho (up, down):  0.137E+01 0.000E+00

     total cpu time spent up to now is     6052.6 secs

     total energy              =   -4529.49248617 Ry
     Harris-Foulkes estimate   =   -4529.35555821 Ry
     estimated scf accuracy    <       8.32111418 Ry

     iteration # 15     ecut=    40.00 Ry     beta=0.15
     Davidson diagonalization with overlap
     ethr =  2.60E-03,  avg # of iterations =  1.5

     negative rho (up, down):  0.134E+01 0.000E+00

     total cpu time spent up to now is     6398.0 secs

     total energy              =   -4529.39043735 Ry
     Harris-Foulkes estimate   =   -4529.52745026 Ry
     estimated scf accuracy    <      11.04588176 Ry

     iteration # 16     ecut=    40.00 Ry     beta=0.15
     Davidson diagonalization with overlap
     ethr =  2.60E-03,  avg # of iterations =  2.7

     negative rho (up, down):  0.135E+01 0.000E+00

     total cpu time spent up to now is     6743.3 secs

     total energy              =   -4529.46790724 Ry
     Harris-Foulkes estimate   =   -4529.49299712 Ry
     estimated scf accuracy    <      25.07933521 Ry

     iteration # 17     ecut=    40.00 Ry     beta=0.15
     Davidson diagonalization with overlap
     ethr =  2.60E-03,  avg # of iterations =  1.7

     negative rho (up, down):  0.137E+01 0.000E+00

     total cpu time spent up to now is     7092.6 secs

     total energy              =   -4529.39641527 Ry
     Harris-Foulkes estimate   =   -4529.57281665 Ry
     estimated scf accuracy    <      11.09000681 Ry

     iteration # 18     ecut=    40.00 Ry     beta=0.15
     Davidson diagonalization with overlap
     ethr =  2.60E-03,  avg # of iterations =  1.0

     negative rho (up, down):  0.131E+01 0.000E+00

     total cpu time spent up to now is     7470.8 secs

     total energy              =   -4529.48316514 Ry
     Harris-Foulkes estimate   =   -4529.48232688 Ry
     estimated scf accuracy    <      21.07547593 Ry

     iteration # 19     ecut=    40.00 Ry     beta=0.15
     Davidson diagonalization with overlap
     ethr =  2.60E-03,  avg # of iterations =  3.3

     negative rho (up, down):  0.136E+01 0.000E+00

     total cpu time spent up to now is     7818.9 secs

     total energy              =   -4529.16239391 Ry
     Harris-Foulkes estimate   =   -4529.72362611 Ry
     estimated scf accuracy    <      33.34226872 Ry

     iteration # 20     ecut=    40.00 Ry     beta=0.15
     Davidson diagonalization with overlap
     ethr =  2.60E-03,  avg # of iterations =  1.2

     negative rho (up, down):  0.128E+01 0.000E+00

     total cpu time spent up to now is     8166.5 secs

          k = 0.0833 0.0833 0.0126     band energies (ev):

  -119.4772-118.7714-118.5674-118.5356-118.5020-118.2606-118.2588-118.1750
  -117.6640 -76.9124 -76.9124 -76.8942 -76.1885 -76.1762 -76.1762 -75.9803
   -75.9658 -75.9658 -75.9424 -75.9402 -75.9402 -75.9392 -75.9182 -75.9182
   -75.6860 -75.6841 -75.6672 -75.6672 -75.6624 -75.6624 -75.5988 -75.5951
   -75.5951 -75.1228 -75.1228 -75.0883 -49.6194 -49.4248 -48.8695 -48.5717
   -34.8226 -34.8028 -34.6914 -34.4578 -34.2423 -33.9668 -33.8568 -33.6518
   -29.6148 -29.4830 -29.4825 -29.4286 -29.3010 -29.3005 -28.9030 -28.8126
   -28.8121 -28.6383 -28.5017 -28.5011 -20.0620 -20.0237 -19.9095 -19.7362
   -19.7152 -19.7092 -19.7081 -19.7017 -19.6449 -19.6373 -19.5398 -19.3928
   -19.3827 -19.2459 -19.1947 -19.1840 -19.1145 -19.0051 -18.9590 -18.9484
   -18.8424 -18.8342 -18.7601 -18.7488 -10.6344 -10.3758 -10.2833 -10.0643
    -9.9631  -9.8776  -9.8770  -9.7343  -9.6844  -9.6802  -9.6692  -9.4466
    -9.3947  -9.1089  -9.0183  -8.9353  -8.9243  -8.9191  -8.9177  -8.9165
    -8.9057  -8.8980  -8.8405  -8.8351  -8.7689  -8.7493  -8.7323  -8.7217
    -8.7072  -8.7043  -8.6954  -8.6898  -8.6880  -8.6539  -8.6517  -8.6151
    -8.6000  -8.5854  -8.5240  -8.4878  -8.4869  -8.4803  -8.4778  -8.4212
    -8.4164  -8.3963  -8.3917  -8.3767  -8.0753  -8.0385  -7.8832  -7.8611
    -7.7903  -7.7754  -7.7123  -7.5236  -7.4286  -6.9536  -6.6634  -6.4144
    -6.1267  -5.9439  -5.7058  -5.6348  -5.6003  -5.5750  -5.4010  -5.3474
    -5.3390  -5.2327  -5.1759  -5.0803  -5.0088  -4.9608  -4.9503  -4.8819
    -4.7195  -4.5725  -4.3549  -4.2989  -4.1028  -4.0718  -4.0189  -3.7210
    -3.6827  -3.5550  -3.4108  -3.3500  -3.2433  -3.0828  -2.9940  -2.9162
    -2.8279  -2.3553

          k = 0.0833 0.2500 0.0126     band energies (ev):

  -119.4772-118.7714-118.5674-118.5356-118.5020-118.2606-118.2588-118.1750
  -117.6640 -76.9124 -76.9124 -76.8942 -76.1885 -76.1763 -76.1762 -75.9803
   -75.9658 -75.9658 -75.9424 -75.9402 -75.9402 -75.9392 -75.9183 -75.9182
   -75.6859 -75.6841 -75.6673 -75.6672 -75.6625 -75.6624 -75.5988 -75.5951
   -75.5951 -75.1228 -75.1228 -75.0883 -49.6169 -49.4223 -48.8669 -48.5691
   -34.7967 -34.7767 -34.6650 -34.4309 -34.2153 -33.9393 -33.8297 -33.6229
   -29.6101 -29.5298 -29.4787 -29.4237 -29.3483 -29.2967 -28.8979 -28.8620
   -28.8081 -28.6331 -28.5511 -28.4969 -20.0471 -20.0346 -20.0038 -19.9777
   -19.9716 -19.8632 -19.7336 -19.6901 -19.6799 -19.6736 -19.6089 -19.5359
   -19.4867 -19.3525 -19.3066 -19.1950 -19.1785 -19.1540 -19.1222 -19.0705
   -18.9528 -18.9176 -18.8049 -18.7164 -10.0909  -9.8415  -9.8003  -9.7539
    -9.7231  -9.7001  -9.6951  -9.6941  -9.5271  -9.5137  -9.3724  -9.1973
    -9.1000  -9.0411  -8.9670  -8.9328  -8.9325  -8.8861  -8.8771  -8.8750
    -8.8633  -8.8235  -8.8012  -8.7776  -8.7655  -8.7607  -8.7530  -8.7429
    -8.7424  -8.7386  -8.7263  -8.7251  -8.7135  -8.5992  -8.5723  -8.5518
    -8.5329  -8.5247  -8.5153  -8.5019  -8.4910  -8.4864  -8.4573  -8.4554
    -8.4520  -8.4270  -8.4020  -8.3994  -8.0076  -7.8829  -7.8752  -7.8181
    -7.8010  -7.4133  -7.1820  -7.0122  -6.9701  -6.8084  -6.3010  -6.1198
    -6.0266  -5.8683  -5.7632  -5.6046  -5.5845  -5.5801  -5.5401  -5.3308
    -5.2705  -5.2290  -5.1107  -5.0435  -4.9724  -4.8941  -4.8266  -4.7276
    -4.6888  -4.5691  -4.5373  -4.4996  -4.2590  -4.0861  -4.0385  -3.9797
    -3.9052  -3.8687  -3.8377  -3.7950  -3.5234  -3.4618  -3.4506  -3.2879
    -3.2346  -2.7919

          k = 0.0833 0.4167 0.0126     band energies (ev):

  -119.4772-118.7714-118.5674-118.5356-118.5020-118.2606-118.2588-118.1750
  -117.6640 -76.9125 -76.9124 -76.8942 -76.1885 -76.1763 -76.1762 -75.9803
   -75.9659 -75.9658 -75.9424 -75.9403 -75.9402 -75.9392 -75.9183 -75.9182
   -75.6859 -75.6841 -75.6673 -75.6672 -75.6625 -75.6624 -75.5988 -75.5952
   -75.5951 -75.1229 -75.1228 -75.0883 -49.6144 -49.4198 -48.8643 -48.5664
   -34.7706 -34.7503 -34.6383 -34.4036 -34.1879 -33.9114 -33.8023 -33.5936
   -29.6053 -29.5764 -29.4747 -29.4188 -29.3954 -29.2926 -28.9111 -28.8927
   -28.8038 -28.6279 -28.6002 -28.4926 -20.3382 -20.3341 -20.2734 -20.0492
   -19.9624 -19.9340 -19.8519 -19.8178 -19.6481 -19.6427 -19.6416 -19.6275
   -19.5766 -19.4893 -19.4555 -19.4313 -19.3172 -19.1430 -19.1187 -19.0271
   -18.8991 -18.8815 -18.7713 -18.6783  -9.9483  -9.7823  -9.7381  -9.7060
    -9.6651  -9.2836  -9.2419  -9.2319  -9.0973  -9.0952  -9.0658  -8.9828
    -8.9573  -8.9127  -8.8949  -8.8867  -8.8651  -8.8450  -8.8337  -8.8326
    -8.7832  -8.7828  -8.7737  -8.7692  -8.7631  -8.7540  -8.7286  -8.7160
    -8.7091  -8.6348  -8.6138  -8.6030  -8.5485  -8.5129  -8.5050  -8.4993
    -8.4949  -8.4841  -8.4598  -8.4574  -8.4416  -8.4198  -8.4154  -8.4008
    -8.3899  -8.1569  -8.1148  -8.1126  -7.9800  -7.9129  -7.9023  -7.8148
    -7.7532  -7.2594  -7.2412  -7.0424  -6.9378  -6.9134  -6.7342  -6.5524
    -6.3418  -6.2018  -6.1065  -6.0749  -5.8142  -5.7434  -5.5331  -5.3832
    -5.2663  -5.2249  -5.1566  -5.0935  -4.9478  -4.8312  -4.7349  -4.7320
    -4.6676  -4.6183  -4.5863  -4.5002  -4.4947  -4.4511  -4.4032  -4.3208
    -4.2329  -4.1845  -4.1501  -4.0856  -3.9471  -3.8686  -3.7431  -3.6326
    -3.5215  -3.3121

          k = 0.2500 0.2500 0.0126     band energies (ev):

  -119.4772-118.7714-118.5674-118.5356-118.5020-118.2606-118.2588-118.1750
  -117.6640 -76.9124 -76.9124 -76.8942 -76.1885 -76.1763 -76.1763 -75.9803
   -75.9658 -75.9658 -75.9424 -75.9402 -75.9402 -75.9392 -75.9183 -75.9183
   -75.6859 -75.6841 -75.6673 -75.6673 -75.6625 -75.6625 -75.5988 -75.5951
   -75.5951 -75.1228 -75.1228 -75.0883 -49.6145 -49.4198 -48.8643 -48.5665
   -34.7712 -34.7509 -34.6390 -34.4044 -34.1887 -33.9122 -33.8030 -33.5945
   -29.6055 -29.5261 -29.5243 -29.4190 -29.3446 -29.3427 -28.8929 -28.8580
   -28.8560 -28.6281 -28.5471 -28.5450 -20.0195 -20.0078 -19.9830 -19.9785
   -19.9596 -19.9445 -19.9360 -19.9156 -19.8206 -19.7049 -19.6694 -19.6464
   -19.5074 -19.4710 -19.4381 -19.2774 -19.2398 -19.1506 -19.1479 -19.1202
   -19.0917 -19.0517 -19.0288 -18.9042  -9.7725  -9.7466  -9.7372  -9.7240
    -9.7235  -9.5749  -9.3350  -9.2631  -9.1916  -9.0416  -9.0130  -8.9774
    -8.9759  -8.9662  -8.9480  -8.9355  -8.8458  -8.8135  -8.8085  -8.7956
    -8.7946  -8.7916  -8.7792  -8.7765  -8.7762  -8.7757  -8.7621  -8.7569
    -8.7519  -8.7406  -8.7364  -8.6643  -8.5732  -8.5354  -8.5307  -8.5293
    -8.5291  -8.5221  -8.5118  -8.5092  -8.5059  -8.5051  -8.4882  -8.4864
    -8.4771  -8.4403  -8.4125  -8.3975  -7.9514  -7.8981  -7.8745  -7.8060
    -7.7873  -7.1459  -6.8690  -6.6881  -6.5958  -6.4052  -5.9219  -5.8324
    -5.7187  -5.6930  -5.6914  -5.6381  -5.5701  -5.5122  -5.5008  -5.3647
    -5.3227  -5.2661  -5.2493  -5.2287  -5.0963  -5.0686  -4.9669  -4.9317
    -4.9197  -4.7915  -4.7539  -4.7515  -4.5067  -4.4089  -4.1666  -4.0915
    -3.9945  -3.7787  -3.6589  -3.5925  -3.5074  -3.4635  -3.3530  -3.2946
    -3.2071  -3.1307

          k = 0.2500 0.4167 0.0126     band energies (ev):

  -119.4772-118.7714-118.5674-118.5356-118.5020-118.2606-118.2588-118.1750
  -117.6640 -76.9125 -76.9124 -76.8942 -76.1885 -76.1763 -76.1763 -75.9803
   -75.9658 -75.9658 -75.9424 -75.9403 -75.9402 -75.9392 -75.9183 -75.9183
   -75.6859 -75.6841 -75.6673 -75.6673 -75.6625 -75.6625 -75.5988 -75.5952
   -75.5951 -75.1229 -75.1228 -75.0883 -49.6120 -49.4173 -48.8617 -48.5639
   -34.7454 -34.7249 -34.6126 -34.3776 -34.1618 -33.8848 -33.7760 -33.5657
   -29.6009 -29.5711 -29.5206 -29.4143 -29.3901 -29.3389 -28.9054 -28.8879
   -28.8520 -28.6230 -28.5945 -28.5410 -20.2900 -20.2865 -20.2254 -19.9945
   -19.9590 -19.9515 -19.9183 -19.8946 -19.8881 -19.7967 -19.7781 -19.6398
   -19.6017 -19.5708 -19.4419 -19.4388 -19.3959 -19.3878 -19.2097 -19.0998
   -19.0917 -19.0201 -18.9872 -18.8545  -9.7854  -9.7617  -9.7381  -9.7355
    -9.6927  -9.0597  -9.0528  -9.0137  -8.9956  -8.9866  -8.9367  -8.9236
    -8.8925  -8.8660  -8.8385  -8.8371  -8.8267  -8.8213  -8.8150  -8.8112
    -8.8097  -8.8024  -8.7906  -8.7605  -8.7502  -8.6973  -8.6143  -8.5824
    -8.5696  -8.5649  -8.5615  -8.5590  -8.5453  -8.5376  -8.5354  -8.5213
    -8.5202  -8.5113  -8.5072  -8.4265  -8.4039  -8.3878  -8.3428  -8.3371
    -8.3246  -8.0773  -8.0183  -8.0149  -7.9282  -7.8992  -7.8808  -7.8070
    -7.7602  -6.9369  -6.7575  -6.7209  -6.5966  -6.4624  -6.4350  -6.3670
    -6.1902  -6.1746  -6.0653  -6.0436  -5.9633  -5.9324  -5.8785  -5.8143
    -5.7534  -5.5721  -5.5071  -5.4224  -5.3772  -5.1855  -5.1539  -5.0808
    -5.0250  -4.9421  -4.7741  -4.7219  -4.5459  -4.4618  -4.3199  -4.2947
    -4.2062  -3.8781  -3.8280  -3.6829  -3.5141  -3.4471  -3.4222  -3.3039
    -3.1620  -2.9652

          k = 0.4167 0.4167 0.0126     band energies (ev):

  -119.4772-118.7714-118.5674-118.5356-118.5020-118.2606-118.2588-118.1750
  -117.6640 -76.9125 -76.9125 -76.8942 -76.1885 -76.1763 -76.1763 -75.9803
   -75.9658 -75.9658 -75.9424 -75.9403 -75.9403 -75.9392 -75.9183 -75.9183
   -75.6859 -75.6841 -75.6673 -75.6673 -75.6625 -75.6625 -75.5988 -75.5952
   -75.5952 -75.1229 -75.1229 -75.0883 -49.6095 -49.4148 -48.8591 -48.5613
   -34.7200 -34.6993 -34.5867 -34.3512 -34.1353 -33.8579 -33.7494 -33.5374
   -29.5964 -29.5661 -29.5657 -29.4097 -29.3850 -29.3845 -28.9000 -28.8994
   -28.8831 -28.6183 -28.5891 -28.5886 -20.2440 -20.2408 -20.2373 -20.2344
   -20.1792 -20.1727 -19.9419 -19.9335 -19.8806 -19.8558 -19.7437 -19.7383
   -19.7354 -19.5600 -19.5165 -19.5079 -19.3909 -19.3837 -19.3431 -19.3386
   -19.3294 -19.0558 -18.9475 -18.8087  -9.8220  -9.7650  -9.7591  -9.7532
    -9.5869  -9.0862  -9.0566  -8.9962  -8.9954  -8.9705  -8.9560  -8.9516
    -8.8902  -8.8803  -8.8554  -8.8400  -8.8365  -8.8091  -8.8081  -8.7908
    -8.7870  -8.7836  -8.6562  -8.6009  -8.5962  -8.5878  -8.5848  -8.5811
    -8.5798  -8.5751  -8.5701  -8.5679  -8.5494  -8.5492  -8.5238  -8.5054
    -8.4968  -8.4307  -8.3362  -8.3304  -8.2734  -8.1678  -8.0976  -8.0904
    -8.0693  -7.9437  -7.8939  -7.8628  -7.7907  -7.7883  -7.7270  -7.6981
    -7.6815  -7.0841  -6.8024  -6.7845  -6.6015  -6.5938  -6.5546  -6.5292
    -6.4223  -6.4141  -6.2280  -6.1827  -6.1491  -6.1211  -6.0198  -5.9583
    -5.8635  -5.7596  -5.7250  -5.5529  -5.5334  -5.5186  -5.4629  -5.1966
    -5.0444  -4.8906  -4.8034  -4.5853  -4.4467  -4.4226  -4.3857  -4.3143
    -4.2491  -4.1622  -4.1381  -4.0191  -3.9477  -3.7628  -3.7327  -3.6358
    -3.5664  -3.4967

     the Fermi energy is    -5.9007 ev

     total energy              =   -4529.04935718 Ry
     Harris-Foulkes estimate   =   -4529.47209930 Ry
     estimated scf accuracy    <       5.97997617 Ry

     iteration # 21     ecut=    40.00 Ry     beta=0.15
     Davidson diagonalization with overlap
     ethr =  2.03E-03,  avg # of iterations =  1.3

     negative rho (up, down):  0.127E+01 0.000E+00

     total cpu time spent up to now is     8518.6 secs

     total energy              =   -4529.08854907 Ry
     Harris-Foulkes estimate   =   -4529.14527933 Ry
     estimated scf accuracy    <       4.50108311 Ry

     iteration # 22     ecut=    40.00 Ry     beta=0.15
     Davidson diagonalization with overlap
     ethr =  1.53E-03,  avg # of iterations =  1.0

     negative rho (up, down):  0.126E+01 0.000E+00

     total cpu time spent up to now is     8871.1 secs

     total energy              =   -4528.90143136 Ry
     Harris-Foulkes estimate   =   -4529.09895526 Ry
     estimated scf accuracy    <       6.03266496 Ry

     iteration # 23     ecut=    40.00 Ry     beta=0.15
     Davidson diagonalization with overlap
     ethr =  1.53E-03,  avg # of iterations =  1.0

     negative rho (up, down):  0.126E+01 0.000E+00

     total cpu time spent up to now is     9221.4 secs

     total energy              =   -4529.02599848 Ry
     Harris-Foulkes estimate   =   -4528.94143398 Ry
     estimated scf accuracy    <       6.06847531 Ry

     iteration # 24     ecut=    40.00 Ry     beta=0.15
     Davidson diagonalization with overlap
     ethr =  1.53E-03,  avg # of iterations =  1.0

     negative rho (up, down):  0.125E+01 0.000E+00

     total cpu time spent up to now is     9572.2 secs

     total energy              =   -4529.03061217 Ry
     Harris-Foulkes estimate   =   -4529.05805182 Ry
     estimated scf accuracy    <      30.55163832 Ry

     iteration # 25     ecut=    40.00 Ry     beta=0.15
     Davidson diagonalization with overlap
     ethr =  1.53E-03,  avg # of iterations =  1.0

     negative rho (up, down):  0.126E+01 0.000E+00

     total cpu time spent up to now is     9913.0 secs

     total energy              =   -4529.11190494 Ry
     Harris-Foulkes estimate   =   -4529.21179901 Ry
     estimated scf accuracy    <     319.61183524 Ry

     iteration # 26     ecut=    40.00 Ry     beta=0.15
     Davidson diagonalization with overlap
     ethr =  1.53E-03,  avg # of iterations =  1.0

     negative rho (up, down):  0.127E+01 0.000E+00

     total cpu time spent up to now is    10261.1 secs

     total energy              =   -4529.15418794 Ry
     Harris-Foulkes estimate   =   -4529.12906703 Ry
     estimated scf accuracy    <     309.16004576 Ry

     iteration # 27     ecut=    40.00 Ry     beta=0.15
     Davidson diagonalization with overlap
     ethr =  1.53E-03,  avg # of iterations =  1.0

     negative rho (up, down):  0.126E+01 0.000E+00

     total cpu time spent up to now is    10605.9 secs

     total energy              =   -4528.84154308 Ry
     Harris-Foulkes estimate   =   -4529.16088905 Ry
     estimated scf accuracy    <     354.34023798 Ry

     iteration # 28     ecut=    40.00 Ry     beta=0.15
     Davidson diagonalization with overlap
     ethr =  1.53E-03,  avg # of iterations =  1.0

     negative rho (up, down):  0.126E+01 0.000E+00

     total cpu time spent up to now is    10962.4 secs

     total energy              =   -4528.89155511 Ry
     Harris-Foulkes estimate   =   -4528.91240202 Ry
     estimated scf accuracy    <      77.08747641 Ry

     iteration # 29     ecut=    40.00 Ry     beta=0.15
     Davidson diagonalization with overlap
     ethr =  1.53E-03,  avg # of iterations =  1.0

     negative rho (up, down):  0.126E+01 0.000E+00

     total cpu time spent up to now is    11309.2 secs

     total energy              =   -4528.93194721 Ry
     Harris-Foulkes estimate   =   -4528.90106003 Ry
     estimated scf accuracy    <      31.84555977 Ry

     iteration # 30     ecut=    40.00 Ry     beta=0.15
     Davidson diagonalization with overlap
     ethr =  1.53E-03,  avg # of iterations =  1.0

     negative rho (up, down):  0.124E+01 0.000E+00

     total cpu time spent up to now is    11667.0 secs

          k = 0.0833 0.0833 0.0126     band energies (ev):

  -117.9043-117.8882-117.7142-117.6778-117.6718-117.6625-117.6380-117.2973
  -115.0426 -75.2644 -75.2634 -75.2634 -75.2488 -75.2483 -75.2483 -75.1145
   -75.1145 -75.1009 -75.0964 -75.0920 -75.0704 -75.0704 -75.0637 -75.0588
   -75.0555 -75.0555 -75.0308 -75.0308 -75.0198 -75.0198 -74.7101 -74.7100
   -74.6963 -72.4716 -72.4716 -72.4344 -49.9019 -49.6439 -49.4823 -49.4437
   -34.4893 -34.4822 -34.4349 -34.4053 -34.0942 -34.0146 -33.9998 -33.8567
   -29.8527 -29.7429 -29.7425 -29.5988 -29.5013 -29.5008 -29.4601 -29.4126
   -29.3285 -29.3280 -29.2746 -29.2742 -19.7215 -19.6923 -19.6643 -19.6207
   -19.4124 -19.4051 -19.4014 -19.3942 -19.3747 -19.3672 -19.3266 -19.3192
   -19.2593 -19.2352 -19.1928 -19.1078 -18.9743 -18.9660 -18.9597 -18.9503
   -18.9465 -18.9371 -18.7961 -18.7865  -9.9800  -9.9304  -9.8720  -9.3921
    -9.2331  -9.0935  -9.0358  -8.8997  -8.2082  -8.1987  -8.1628  -8.1497
    -8.1292  -8.0999  -8.0539  -8.0413  -8.0329  -8.0303  -8.0284  -7.9783
    -7.9708  -7.9641  -7.9556  -7.9416  -7.9414  -7.9345  -7.9336  -7.9203
    -7.8963  -7.8902  -7.8852  -7.8813  -7.8811  -7.8776  -7.8683  -7.8532
    -7.8492  -7.8102  -7.7919  -7.7846  -7.7822  -7.7649  -7.7199  -7.6930
    -7.6465  -7.4885  -7.4811  -7.4783  -7.4771  -7.3468  -7.1578  -6.9188
    -6.5813  -6.2952  -6.0430  -5.7929  -5.5900  -5.5284  -5.5030  -5.4170
    -5.3529  -5.3022  -5.3005  -5.2679  -5.2593  -5.2193  -5.2187  -5.1804
    -5.0337  -5.0101  -4.9444  -4.8712  -4.8128  -4.7926  -4.7829  -4.6445
    -4.5544  -4.4166  -4.2259  -4.0619  -4.0084  -3.8401  -3.7535  -3.6739
    -3.5849  -3.5766  -3.1947  -3.0514  -2.9697  -2.8931  -2.8591  -2.8404
    -2.6850  -2.2757

          k = 0.0833 0.2500 0.0126     band energies (ev):

  -117.9043-117.8882-117.7142-117.6778-117.6718-117.6625-117.6380-117.2973
  -115.0426 -75.2644 -75.2634 -75.2634 -75.2488 -75.2483 -75.2483 -75.1146
   -75.1145 -75.1009 -75.0964 -75.0920 -75.0705 -75.0704 -75.0637 -75.0588
   -75.0556 -75.0555 -75.0309 -75.0308 -75.0198 -75.0198 -74.7101 -74.7100
   -74.6963 -72.4717 -72.4716 -72.4344 -49.8995 -49.6415 -49.4799 -49.4413
   -34.4634 -34.4565 -34.4086 -34.3794 -34.0685 -33.9879 -33.9731 -33.8299
   -29.8482 -29.7876 -29.7389 -29.5942 -29.5466 -29.4972 -29.4555 -29.4081
   -29.3739 -29.3244 -29.3197 -29.2705 -19.7293 -19.7212 -19.7001 -19.6758
   -19.6482 -19.6468 -19.6184 -19.5747 -19.3773 -19.3665 -19.3390 -19.2947
   -19.2944 -19.2911 -19.2817 -19.2126 -19.1886 -19.1511 -19.1330 -19.0600
   -18.9376 -18.9207 -18.9073 -18.7567  -9.3857  -9.3444  -9.2979  -8.8398
    -8.7287  -8.6716  -8.6604  -8.5659  -8.1799  -8.1614  -8.1041  -8.0835
    -8.0475  -8.0393  -8.0315  -8.0209  -7.9966  -7.9900  -7.9875  -7.9835
    -7.9791  -7.9753  -7.9634  -7.9603  -7.9518  -7.9324  -7.9245  -7.9166
    -7.9049  -7.9011  -7.8831  -7.8806  -7.8802  -7.8655  -7.8633  -7.8492
    -7.8393  -7.8333  -7.8215  -7.8122  -7.8024  -7.7740  -7.7331  -7.7159
    -7.5533  -7.5294  -7.4977  -7.4918  -6.9832  -6.8905  -6.7826  -6.4789
    -6.3096  -5.9228  -5.8257  -5.7148  -5.5878  -5.4969  -5.4524  -5.3992
    -5.3208  -5.3201  -5.2982  -5.2416  -5.2095  -5.2046  -5.1392  -5.1357
    -5.1170  -5.0448  -4.9751  -4.8484  -4.6769  -4.5334  -4.4917  -4.4280
    -4.3332  -4.3144  -4.2069  -4.1496  -4.0631  -3.9936  -3.8627  -3.8297
    -3.7247  -3.5951  -3.4862  -3.4507  -3.2882  -3.2600  -3.1897  -2.8152
    -2.4768  -2.3194

          k = 0.0833 0.4167 0.0126     band energies (ev):

  -117.9043-117.8882-117.7142-117.6778-117.6718-117.6625-117.6380-117.2973
  -115.0426 -75.2644 -75.2635 -75.2634 -75.2488 -75.2484 -75.2483 -75.1146
   -75.1145 -75.1009 -75.0964 -75.0920 -75.0705 -75.0704 -75.0637 -75.0588
   -75.0556 -75.0555 -75.0309 -75.0308 -75.0199 -75.0198 -74.7102 -74.7100
   -74.6963 -72.4717 -72.4716 -72.4344 -49.8971 -49.6391 -49.4775 -49.4389
   -34.4373 -34.4305 -34.3820 -34.3531 -34.0426 -33.9609 -33.9460 -33.8028
   -29.8437 -29.8321 -29.7351 -29.5917 -29.5895 -29.4933 -29.4509 -29.4191
   -29.4035 -29.3645 -29.3205 -29.2667 -20.0223 -20.0167 -20.0009 -19.9455
   -19.6320 -19.6072 -19.6007 -19.5923 -19.5920 -19.5735 -19.5296 -19.4449
   -19.3457 -19.3351 -19.3069 -19.2596 -19.1650 -19.1409 -19.1085 -19.0113
   -18.9049 -18.8862 -18.8728 -18.7220  -8.6857  -8.6665  -8.6430  -8.3459
    -8.3447  -8.3238  -8.2378  -8.2151  -8.1850  -8.1278  -8.0660  -8.0495
    -8.0343  -8.0274  -8.0168  -8.0088  -7.9974  -7.9932  -7.9901  -7.9868
    -7.9699  -7.9603  -7.9304  -7.9089  -7.9083  -7.9019  -7.8971  -7.8952
    -7.8766  -7.8732  -7.8689  -7.8664  -7.8198  -7.8139  -7.7887  -7.7791
    -7.7723  -7.7513  -7.7351  -7.7221  -7.5777  -7.5763  -7.5652  -7.5540
    -7.5168  -7.4923  -7.4680  -7.2720  -6.9479  -6.8852  -6.7917  -6.4760
    -6.3136  -6.2350  -6.1443  -5.9409  -5.8518  -5.7741  -5.7535  -5.6801
    -5.6126  -5.5064  -5.3380  -5.2934  -5.2246  -5.2181  -5.1953  -5.0804
    -5.0341  -5.0118  -4.9219  -4.8503  -4.7326  -4.6354  -4.4635  -4.4265
    -4.3552  -4.3246  -4.3023  -4.2920  -4.2349  -4.2275  -4.1556  -4.0520
    -3.9955  -3.8596  -3.8303  -3.7705  -3.7484  -3.6722  -3.3709  -3.3433
    -3.2140  -3.1236

          k = 0.2500 0.2500 0.0126     band energies (ev):

  -117.9043-117.8882-117.7142-117.6778-117.6718-117.6625-117.6380-117.2973
  -115.0426 -75.2644 -75.2634 -75.2634 -75.2488 -75.2483 -75.2483 -75.1146
   -75.1146 -75.1009 -75.0964 -75.0920 -75.0705 -75.0705 -75.0637 -75.0588
   -75.0556 -75.0556 -75.0308 -75.0308 -75.0198 -75.0198 -74.7101 -74.7101
   -74.6963 -72.4717 -72.4716 -72.4344 -49.8971 -49.6391 -49.4775 -49.4389
   -34.4379 -34.4311 -34.3826 -34.3537 -34.0433 -33.9616 -33.9468 -33.8036
   -29.8438 -29.7841 -29.7824 -29.5898 -29.5430 -29.5413 -29.4510 -29.4037
   -29.3704 -29.3686 -29.3161 -29.3144 -19.7027 -19.6947 -19.6748 -19.6731
   -19.6669 -19.6447 -19.6342 -19.6216 -19.6053 -19.5934 -19.5763 -19.5326
   -19.2670 -19.2665 -19.2534 -19.2372 -19.2326 -19.2195 -19.1689 -19.1449
   -19.1115 -19.1047 -19.0701 -19.0155  -8.8993  -8.8623  -8.8221  -8.3564
    -8.3161  -8.2915  -8.2715  -8.2211  -8.0661  -8.0568  -8.0459  -8.0434
    -8.0431  -8.0198  -8.0055  -8.0015  -7.9983  -7.9899  -7.9866  -7.9858
    -7.9632  -7.9512  -7.9371  -7.9362  -7.9341  -7.9258  -7.9237  -7.9196
    -7.9065  -7.9042  -7.9018  -7.8920  -7.8885  -7.8859  -7.8838  -7.8751
    -7.8581  -7.8568  -7.8200  -7.8153  -7.8112  -7.7887  -7.7736  -7.6195
    -7.5836  -7.5378  -7.5169  -7.4897  -6.7148  -6.6176  -6.4836  -6.2044
    -5.9645  -5.5787  -5.5123  -5.4713  -5.4699  -5.4479  -5.4108  -5.3880
    -5.3347  -5.3315  -5.3050  -5.2522  -5.2278  -5.2069  -5.1908  -5.0319
    -4.8718  -4.8428  -4.7977  -4.7697  -4.7572  -4.7085  -4.6948  -4.6924
    -4.6583  -4.4946  -4.4124  -4.3620  -4.2483  -4.0681  -4.0525  -3.9743
    -3.7268  -3.6771  -3.5189  -3.4273  -3.3629  -3.2403  -3.1182  -3.0547
    -2.8536  -2.7268

          k = 0.2500 0.4167 0.0126     band energies (ev):

  -117.9043-117.8882-117.7142-117.6778-117.6718-117.6625-117.6380-117.2973
  -115.0426 -75.2644 -75.2635 -75.2634 -75.2488 -75.2483 -75.2483 -75.1146
   -75.1146 -75.1009 -75.0964 -75.0920 -75.0705 -75.0705 -75.0637 -75.0588
   -75.0556 -75.0556 -75.0309 -75.0308 -75.0199 -75.0198 -74.7102 -74.7101
   -74.6963 -72.4717 -72.4716 -72.4344 -49.8948 -49.6367 -49.4751 -49.4365
   -34.4122 -34.4055 -34.3564 -34.3278 -34.0178 -33.9350 -33.9202 -33.7769
   -29.8394 -29.8272 -29.7789 -29.5867 -29.5852 -29.5377 -29.4465 -29.4141
   -29.3993 -29.3650 -29.3595 -29.3109 -19.9757 -19.9702 -19.9533 -19.8985
   -19.6480 -19.6402 -19.6173 -19.5928 -19.5665 -19.5644 -19.5515 -19.5428
   -19.5389 -19.5341 -19.4904 -19.3912 -19.2093 -19.2036 -19.1904 -19.1244
   -19.1004 -19.0712 -19.0410 -18.9702  -8.3613  -8.3303  -8.2999  -8.1905
    -8.1566  -8.1449  -8.1241  -8.0976  -8.0951  -8.0743  -8.0695  -8.0617
    -8.0403  -8.0263  -8.0178  -7.9717  -7.9667  -7.9663  -7.9525  -7.9459
    -7.9433  -7.9371  -7.9351  -7.9236  -7.9214  -7.9183  -7.9150  -7.8886
    -7.8744  -7.8604  -7.8522  -7.8403  -7.8345  -7.8318  -7.7991  -7.7398
    -7.7189  -7.6914  -7.6621  -7.6331  -7.6239  -7.5445  -7.5309  -7.5237
    -7.5083  -7.4920  -7.4077  -7.2112  -6.5071  -6.4440  -6.3365  -6.1765
    -6.1069  -5.9855  -5.9846  -5.9202  -5.6605  -5.6595  -5.6296  -5.6092
    -5.5768  -5.5236  -5.5074  -5.4867  -5.4665  -5.4294  -5.3845  -5.3049
    -5.2744  -5.2132  -5.1543  -5.1482  -5.0878  -5.0549  -4.9911  -4.9467
    -4.7657  -4.7202  -4.6463  -4.5940  -4.5112  -4.4128  -4.3548  -4.2457
    -4.0394  -3.6763  -3.3527  -3.2311  -3.1902  -3.1185  -2.9956  -2.8873
    -2.8413  -2.7704

          k = 0.4167 0.4167 0.0126     band energies (ev):

  -117.9043-117.8882-117.7142-117.6778-117.6717-117.6625-117.6379-117.2973
  -115.0426 -75.2644 -75.2635 -75.2635 -75.2488 -75.2483 -75.2483 -75.1146
   -75.1146 -75.1008 -75.0964 -75.0920 -75.0705 -75.0705 -75.0637 -75.0588
   -75.0556 -75.0556 -75.0309 -75.0309 -75.0199 -75.0199 -74.7102 -74.7101
   -74.6963 -72.4717 -72.4717 -72.4344 -49.8924 -49.6343 -49.4727 -49.4342
   -34.3868 -34.3802 -34.3306 -34.3023 -33.9926 -33.9089 -33.8940 -33.7508
   -29.8352 -29.8225 -29.8221 -29.5820 -29.5814 -29.5808 -29.4422 -29.4093
   -29.4089 -29.3950 -29.3548 -29.3544 -19.9309 -19.9256 -19.9247 -19.9194
   -19.9076 -19.9012 -19.8534 -19.8472 -19.5540 -19.5255 -19.5008 -19.4954
   -19.4947 -19.4932 -19.4883 -19.4878 -19.4801 -19.4512 -19.3396 -19.3317
   -19.0831 -19.0591 -19.0332 -18.9283  -8.4062  -8.3556  -8.3410  -8.1822
    -8.1667  -8.1408  -8.1265  -8.0744  -8.0650  -8.0531  -8.0455  -8.0055
    -7.9963  -7.9917  -7.9829  -7.9797  -7.9729  -7.9695  -7.9651  -7.9620
    -7.9472  -7.9420  -7.9386  -7.8913  -7.8840  -7.8744  -7.8682  -7.8535
    -7.8115  -7.8012  -7.7512  -7.7211  -7.7017  -7.6991  -7.6932  -7.6083
    -7.6021  -7.5984  -7.5547  -7.5494  -7.5256  -7.4898  -7.3712  -7.3271
    -7.3043  -7.2946  -7.1961  -6.9712  -6.4264  -6.4135  -6.3519  -6.2622
    -6.2513  -6.1952  -6.1537  -6.1440  -6.1190  -6.0761  -5.7785  -5.7633
    -5.7465  -5.6544  -5.5881  -5.5763  -5.4570  -5.4567  -5.3952  -5.3619
    -5.3236  -5.3228  -5.2347  -5.2311  -5.1767  -5.1569  -5.0541  -5.0322
    -5.0295  -4.6017  -4.5262  -4.4355  -4.3789  -4.2872  -4.2509  -4.1024
    -4.0452  -3.8433  -3.7446  -3.6534  -3.5733  -3.4197  -3.2101  -3.0741
    -2.8862  -2.7930

     the Fermi energy is    -5.3476 ev

     total energy              =   -4529.00116850 Ry
     Harris-Foulkes estimate   =   -4528.98701793 Ry
     estimated scf accuracy    <     214.93033994 Ry

     iteration # 31     ecut=    40.00 Ry     beta=0.15
     Davidson diagonalization with overlap
     ethr =  1.53E-03,  avg # of iterations =  1.0

     negative rho (up, down):  0.123E+01 0.000E+00

     total cpu time spent up to now is    12019.8 secs

     total energy              =   -4528.76802320 Ry
     Harris-Foulkes estimate   =   -4529.01144714 Ry
     estimated scf accuracy    <     260.66643370 Ry

     iteration # 32     ecut=    40.00 Ry     beta=0.15
     Davidson diagonalization with overlap
     ethr =  1.53E-03,  avg # of iterations =  1.0

     negative rho (up, down):  0.121E+01 0.000E+00

     total cpu time spent up to now is    12374.1 secs

     total energy              =   -4528.25592319 Ry
     Harris-Foulkes estimate   =   -4528.82125498 Ry
     estimated scf accuracy    <      52.97267890 Ry

     iteration # 33     ecut=    40.00 Ry     beta=0.15
     Davidson diagonalization with overlap
     ethr =  1.53E-03,  avg # of iterations =  1.0

     negative rho (up, down):  0.124E+01 0.000E+00

     total cpu time spent up to now is    12723.6 secs

     total energy              =   -4528.20656479 Ry
     Harris-Foulkes estimate   =   -4528.33498679 Ry
     estimated scf accuracy    <     210.53590888 Ry

     iteration # 34     ecut=    40.00 Ry     beta=0.15
     Davidson diagonalization with overlap
     ethr =  1.53E-03,  avg # of iterations =  1.0

     negative rho (up, down):  0.125E+01 0.000E+00

     total cpu time spent up to now is    13072.4 secs

     total energy              =   -4528.07990371 Ry
     Harris-Foulkes estimate   =   -4528.23849841 Ry
     estimated scf accuracy    <     115.53261237 Ry

     iteration # 35     ecut=    40.00 Ry     beta=0.15
     Davidson diagonalization with overlap
     ethr =  1.53E-03,  avg # of iterations =  1.0

     negative rho (up, down):  0.125E+01 0.000E+00

     total cpu time spent up to now is    13421.3 secs

     total energy              =   -4527.76573295 Ry
     Harris-Foulkes estimate   =   -4528.09166985 Ry
     estimated scf accuracy    <     149.85047275 Ry

     iteration # 36     ecut=    40.00 Ry     beta=0.15
     Davidson diagonalization with overlap
     ethr =  1.53E-03,  avg # of iterations =  1.5

     negative rho (up, down):  0.126E+01 0.000E+00

     total cpu time spent up to now is    13782.1 secs

     total energy              =   -4527.38178383 Ry
     Harris-Foulkes estimate   =   -4527.81576365 Ry
     estimated scf accuracy    <      20.67161163 Ry

     iteration # 37     ecut=    40.00 Ry     beta=0.15
     Davidson diagonalization with overlap
     ethr =  1.53E-03,  avg # of iterations =  1.0

     negative rho (up, down):  0.128E+01 0.000E+00

     total cpu time spent up to now is    14137.4 secs

     total energy              =   -4527.04370488 Ry
     Harris-Foulkes estimate   =   -4527.39610605 Ry
     estimated scf accuracy    <       6.87818689 Ry

     iteration # 38     ecut=    40.00 Ry     beta=0.15
     Davidson diagonalization with overlap
     ethr =  1.53E-03,  avg # of iterations =  2.3

     negative rho (up, down):  0.126E+01 0.000E+00

     total cpu time spent up to now is    14488.5 secs

     total energy              =   -4527.08100557 Ry
     Harris-Foulkes estimate   =   -4527.08007291 Ry
     estimated scf accuracy    <       2.48154688 Ry

     iteration # 39     ecut=    40.00 Ry     beta=0.15
     Davidson diagonalization with overlap
     ethr =  8.41E-04,  avg # of iterations =  1.8

     negative rho (up, down):  0.126E+01 0.000E+00

     total cpu time spent up to now is    14840.8 secs

     total energy              =   -4527.07304656 Ry
     Harris-Foulkes estimate   =   -4527.08394165 Ry
     estimated scf accuracy    <       2.20553657 Ry

     iteration # 40     ecut=    40.00 Ry     beta=0.15
     Davidson diagonalization with overlap
     ethr =  7.48E-04,  avg # of iterations =  1.7

     negative rho (up, down):  0.124E+01 0.000E+00

     total cpu time spent up to now is    15191.0 secs

          k = 0.0833 0.0833 0.0126     band energies (ev):

  -113.4399-113.2865-113.1291-113.1207-113.1108-113.0369-113.0262-112.9318
  -111.0813 -70.8360 -70.8264 -70.8264 -70.6949 -70.6799 -70.6799 -70.5417
   -70.5348 -70.5348 -70.5086 -70.5086 -70.5027 -70.4970 -70.4970 -70.4871
   -70.4654 -70.4398 -70.4398 -70.4275 -70.4050 -70.4050 -70.3482 -70.3482
   -70.3151 -68.6520 -68.4716 -68.4716 -45.3171 -45.1893 -45.1558 -45.1525
   -30.1632 -30.1353 -30.0178 -29.9979 -29.9196 -29.7758 -29.6977 -29.5455
   -25.2466 -25.1480 -25.1476 -25.1337 -25.0871 -25.0542 -25.0483 -25.0479
   -25.0085 -25.0080 -24.9828 -24.9824 -15.3756 -15.3110 -15.2253 -15.1841
   -15.0515 -15.0446 -15.0139 -15.0058 -15.0052 -14.9936 -14.9218 -14.9148
   -14.8897 -14.8825 -14.8528 -14.8045 -14.7261 -14.7184 -14.6974 -14.6886
   -14.5951 -14.5863 -14.4891 -14.4794  -5.5247  -5.3930  -5.3399  -5.0182
    -4.7405  -4.6166  -4.5036  -4.3917  -3.8322  -3.7744  -3.6646  -3.6287
    -3.5847  -3.5746  -3.5741  -3.5724  -3.5204  -3.5135  -3.4878  -3.4872
    -3.4842  -3.4717  -3.4674  -3.4385  -3.4204  -3.3911  -3.3751  -3.3610
    -3.3593  -3.3299  -3.3250  -3.3153  -3.2981  -3.2930  -3.2656  -3.2615
    -3.2513  -3.2495  -3.2409  -3.2403  -3.2374  -3.1960  -3.1869  -3.1797
    -3.1266  -3.1196  -3.0981  -3.0979  -3.0491  -2.8673  -2.7366  -2.5164
    -2.0572  -1.9474  -1.7476  -1.7026  -1.5364  -1.5198  -1.5130  -1.3844
    -1.2878  -1.1059  -0.9291  -0.9186  -0.9138  -0.9053  -0.9028  -0.8575
    -0.8285  -0.8114  -0.5378  -0.4346  -0.4078  -0.3634  -0.3096  -0.3065
    -0.2943  -0.1271  -0.1048  -0.0423  -0.0145   0.1336   0.2935   0.3584
     0.4248   0.5306   0.5812   0.6365   0.6861   0.7148   1.4105   1.4574
     1.4849   1.5174

          k = 0.0833 0.2500 0.0126     band energies (ev):

  -113.4399-113.2865-113.1291-113.1207-113.1108-113.0369-113.0262-112.9318
  -111.0813 -70.8360 -70.8265 -70.8264 -70.6949 -70.6799 -70.6799 -70.5417
   -70.5348 -70.5348 -70.5086 -70.5086 -70.5027 -70.4970 -70.4970 -70.4871
   -70.4654 -70.4398 -70.4398 -70.4275 -70.4050 -70.4050 -70.3482 -70.3482
   -70.3151 -68.6520 -68.4717 -68.4716 -45.3147 -45.1869 -45.1534 -45.1501
   -30.1376 -30.1101 -29.9921 -29.9723 -29.8948 -29.7496 -29.6717 -29.5187
   -25.2422 -25.1923 -25.1441 -25.1291 -25.0931 -25.0824 -25.0533 -25.0494
   -25.0443 -25.0279 -25.0044 -24.9787 -15.3675 -15.3369 -15.3172 -15.2666
   -15.2406 -15.2072 -15.1781 -15.1381 -15.0362 -15.0241 -15.0173 -14.9783
   -14.9630 -14.9549 -14.9209 -14.8873 -14.8551 -14.8263 -14.8088 -14.7569
   -14.6910 -14.6596 -14.5575 -14.4495  -4.9381  -4.7999  -4.7645  -4.4627
    -4.2815  -4.1816  -4.1096  -4.0621  -3.7847  -3.6977  -3.6699  -3.6199
    -3.6071  -3.5852  -3.5330  -3.5183  -3.4917  -3.4776  -3.4722  -3.4588
    -3.4491  -3.4463  -3.4086  -3.4052  -3.3947  -3.3758  -3.3712  -3.3500
    -3.3491  -3.3416  -3.3274  -3.3179  -3.2977  -3.2900  -3.2875  -3.2830
    -3.2707  -3.2656  -3.2476  -3.2349  -3.2210  -3.1930  -3.1773  -3.1705
    -3.1676  -3.1630  -3.1142  -3.1062  -2.5032  -2.3677  -2.3276  -2.2280
    -2.0076  -1.7429  -1.6007  -1.5412  -1.4975  -1.4323  -1.4218  -1.3003
    -1.1697  -1.0531  -0.9571  -0.9115  -0.8484  -0.8032  -0.7400  -0.7264
    -0.6806  -0.6208  -0.5038  -0.3979  -0.3012  -0.1783  -0.0573   0.0121
     0.0308   0.0927   0.1798   0.2287   0.2539   0.2689   0.5412   0.6306
     0.6402   0.6989   0.7514   0.7787   0.8612   0.9763   1.0412   1.0749
     1.2003   1.4877

          k = 0.0833 0.4167 0.0126     band energies (ev):

  -113.4399-113.2865-113.1291-113.1207-113.1108-113.0369-113.0262-112.9318
  -111.0813 -70.8360 -70.8265 -70.8264 -70.6949 -70.6800 -70.6799 -70.5417
   -70.5349 -70.5348 -70.5087 -70.5086 -70.5027 -70.4971 -70.4970 -70.4871
   -70.4653 -70.4398 -70.4398 -70.4275 -70.4051 -70.4050 -70.3483 -70.3482
   -70.3151 -68.6520 -68.4717 -68.4716 -45.3123 -45.1845 -45.1510 -45.1477
   -30.1118 -30.0847 -29.9661 -29.9464 -29.8698 -29.7232 -29.6454 -29.4916
   -25.2378 -25.2362 -25.1403 -25.1375 -25.1245 -25.0975 -25.0779 -25.0727
   -25.0450 -25.0405 -25.0006 -24.9749 -15.6603 -15.6105 -15.5349 -15.5005
   -15.3276 -15.3260 -15.2882 -15.2236 -15.2231 -15.1383 -15.1322 -15.0939
   -14.9863 -14.9474 -14.9180 -14.9154 -14.8561 -14.8240 -14.7639 -14.7085
   -14.6596 -14.6260 -14.5241 -14.4147  -4.2923  -4.1004  -4.0910  -3.9376
    -3.8129  -3.7966  -3.7461  -3.7383  -3.6901  -3.6823  -3.6454  -3.6296
    -3.5954  -3.5612  -3.5199  -3.4992  -3.4934  -3.4608  -3.4521  -3.4337
    -3.3975  -3.3918  -3.3823  -3.3725  -3.3695  -3.3545  -3.3442  -3.3425
    -3.3260  -3.3248  -3.3073  -3.2881  -3.2848  -3.2786  -3.2279  -3.2216
    -3.2019  -3.1998  -3.1850  -3.1522  -3.1492  -3.1349  -3.0981  -3.0977
    -3.0307  -2.9660  -2.9165  -2.8941  -2.4315  -2.3167  -2.2587  -2.1329
    -2.0424  -1.8101  -1.7322  -1.6481  -1.5808  -1.5339  -1.5288  -1.4683
    -1.3978  -1.3204  -1.2736  -1.1968  -1.1769  -1.1122  -0.7168  -0.6212
    -0.5508  -0.4940  -0.4586  -0.3796  -0.3530  -0.3363   0.0340   0.0421
     0.1019   0.1483   0.1803   0.1922   0.1993   0.2417   0.3090   0.3775
     0.4472   0.5130   0.5265   0.5538   0.5974   0.6728   0.8585   1.0470
     1.1128   1.2278

          k = 0.2500 0.2500 0.0126     band energies (ev):

  -113.4399-113.2865-113.1291-113.1207-113.1108-113.0369-113.0262-112.9318
  -111.0813 -70.8360 -70.8265 -70.8265 -70.6949 -70.6799 -70.6799 -70.5417
   -70.5348 -70.5348 -70.5086 -70.5086 -70.5027 -70.4970 -70.4970 -70.4871
   -70.4653 -70.4398 -70.4398 -70.4275 -70.4050 -70.4050 -70.3482 -70.3482
   -70.3151 -68.6520 -68.4716 -68.4716 -45.3123 -45.1845 -45.1510 -45.1477
   -30.1124 -30.0853 -29.9667 -29.9470 -29.8704 -29.7239 -29.6461 -29.4924
   -25.2379 -25.1888 -25.1871 -25.1247 -25.0896 -25.0878 -25.0780 -25.0498
   -25.0479 -25.0450 -25.0244 -25.0226 -15.3414 -15.3147 -15.3034 -15.2842
   -15.2702 -15.2257 -15.2142 -15.1865 -15.1809 -15.1535 -15.1356 -15.0965
   -15.0098 -14.9964 -14.9822 -14.9645 -14.9215 -14.9177 -14.8934 -14.8616
   -14.7979 -14.7674 -14.7631 -14.7127  -4.4605  -4.3146  -4.2879  -3.9588
    -3.9114  -3.7671  -3.7262  -3.7007  -3.6904  -3.6764  -3.6645  -3.6303
    -3.6200  -3.5239  -3.5224  -3.5146  -3.4978  -3.4933  -3.4158  -3.4106
    -3.4039  -3.3832  -3.3823  -3.3699  -3.3677  -3.3657  -3.3530  -3.3499
    -3.3479  -3.3386  -3.3354  -3.3147  -3.3085  -3.3004  -3.2975  -3.2885
    -3.2727  -3.2651  -3.2563  -3.2310  -3.2304  -3.2230  -3.2156  -3.2063
    -3.1900  -3.1531  -3.1287  -3.1102  -2.1493  -2.0623  -2.0428  -1.9425
    -1.7617  -1.6364  -1.6314  -1.5785  -1.4677  -1.4609  -1.0533  -0.9631
    -0.9544  -0.9344  -0.8465  -0.8336  -0.8228  -0.7480  -0.7095  -0.6129
    -0.4891  -0.4734  -0.4524  -0.3560  -0.3375  -0.3279  -0.2850  -0.2410
    -0.1810  -0.0407   0.0437   0.0538   0.1632   0.2109   0.2163   0.2714
     0.3836   0.6874   0.7366   0.8482   1.0328   1.1223   1.1833   1.2711
     1.2995   1.5228

          k = 0.2500 0.4167 0.0126     band energies (ev):

  -113.4399-113.2865-113.1291-113.1207-113.1108-113.0369-113.0261-112.9318
  -111.0813 -70.8359 -70.8265 -70.8265 -70.6949 -70.6800 -70.6799 -70.5417
   -70.5349 -70.5348 -70.5087 -70.5086 -70.5027 -70.4971 -70.4970 -70.4871
   -70.4653 -70.4398 -70.4398 -70.4275 -70.4051 -70.4050 -70.3483 -70.3482
   -70.3151 -68.6520 -68.4717 -68.4716 -45.3100 -45.1821 -45.1486 -45.1453
   -30.0869 -30.0602 -29.9410 -29.9215 -29.8457 -29.6979 -29.6202 -29.4657
   -25.2336 -25.2314 -25.1836 -25.1326 -25.1202 -25.0926 -25.0843 -25.0736
   -25.0678 -25.0445 -25.0407 -25.0191 -15.6147 -15.5654 -15.4886 -15.4546
   -15.2882 -15.2788 -15.2764 -15.2534 -15.2409 -15.1849 -15.1726 -15.1599
   -15.1270 -15.0928 -15.0845 -15.0550 -14.9552 -14.9361 -14.8799 -14.8790
   -14.8334 -14.7340 -14.7251 -14.6675  -3.9512  -3.8032  -3.7668  -3.7469
    -3.7410  -3.7176  -3.6582  -3.5731  -3.5715  -3.5573  -3.5561  -3.5415
    -3.5254  -3.5199  -3.4842  -3.4809  -3.4458  -3.4303  -3.4153  -3.3929
    -3.3887  -3.3886  -3.3875  -3.3814  -3.3682  -3.3523  -3.3322  -3.3312
    -3.3286  -3.3284  -3.2861  -3.2858  -3.2665  -3.2651  -3.2578  -3.2556
    -3.2433  -3.2290  -3.1731  -3.1595  -3.1293  -3.1032  -3.0899  -3.0401
    -2.9820  -2.9143  -2.8823  -2.8510  -1.9676  -1.8825  -1.8641  -1.8383
    -1.6771  -1.6524  -1.5740  -1.5716  -1.5474  -1.5151  -1.5132  -1.4909
    -1.2672  -1.2505  -1.2133  -1.1208  -1.0952  -1.0263  -1.0167  -0.9957
    -0.9375  -0.7793  -0.7534  -0.6761  -0.6607  -0.5973  -0.5803  -0.5022
    -0.3661  -0.2431  -0.1453  -0.0967  -0.0523  -0.0397   0.0826   0.2320
     0.3449   0.4008   0.8901   1.0416   1.1665   1.2157   1.2597   1.4624
     1.5259   1.5864

          k = 0.4167 0.4167 0.0126     band energies (ev):

  -113.4399-113.2865-113.1291-113.1207-113.1108-113.0369-113.0261-112.9318
  -111.0813 -70.8359 -70.8265 -70.8265 -70.6949 -70.6800 -70.6800 -70.5417
   -70.5349 -70.5349 -70.5087 -70.5087 -70.5027 -70.4971 -70.4971 -70.4871
   -70.4653 -70.4398 -70.4398 -70.4275 -70.4051 -70.4051 -70.3483 -70.3482
   -70.3151 -68.6520 -68.4717 -68.4717 -45.3076 -45.1797 -45.1463 -45.1429
   -30.0618 -30.0354 -29.9157 -29.8963 -29.8214 -29.6723 -29.5947 -29.4395
   -25.2294 -25.2267 -25.2264 -25.1279 -25.1274 -25.1159 -25.0879 -25.0875
   -25.0693 -25.0630 -25.0626 -25.0365 -15.5710 -15.5650 -15.5220 -15.5162
   -15.4442 -15.4381 -15.4105 -15.4044 -15.2336 -15.2272 -15.2271 -15.2196
   -15.2127 -15.1467 -15.1237 -15.1163 -15.0534 -15.0328 -15.0249 -15.0165
   -14.8439 -14.8393 -14.6855 -14.6258  -3.9926  -3.8085  -3.7940  -3.7794
    -3.6964  -3.6889  -3.5996  -3.5982  -3.5759  -3.5677  -3.5491  -3.5227
    -3.4958  -3.4406  -3.4358  -3.4231  -3.4190  -3.4144  -3.4115  -3.3723
    -3.3709  -3.3659  -3.3588  -3.3528  -3.3315  -3.3302  -3.3073  -3.3030
    -3.2887  -3.2789  -3.2314  -3.2247  -3.2219  -3.1659  -3.1637  -3.1494
    -3.1479  -3.1043  -3.1042  -3.0301  -3.0050  -2.9364  -2.9158  -2.8806
    -2.7914  -2.7101  -2.6903  -2.6334  -2.0766  -1.8719  -1.8056  -1.7889
    -1.7758  -1.6926  -1.6818  -1.6761  -1.6552  -1.6157  -1.6099  -1.5764
    -1.5402  -1.3344  -1.3007  -1.2857  -1.2378  -1.1541  -1.1238  -1.0822
    -1.0456  -0.9633  -0.8731  -0.8430  -0.8232  -0.7752  -0.6801  -0.6147
    -0.6019  -0.0976  -0.0951   0.0318   0.1020   0.2213   0.2625   0.3264
     0.3775   0.4092   0.6409   0.7806   0.9214   1.0220   1.1388   1.2022
     1.2787   1.3967

     the Fermi energy is    -1.0761 ev

     total energy              =   -4527.04144460 Ry
     Harris-Foulkes estimate   =   -4527.07523392 Ry
     estimated scf accuracy    <       1.72446660 Ry

     iteration # 41     ecut=    40.00 Ry     beta=0.15
     Davidson diagonalization with overlap
     ethr =  5.85E-04,  avg # of iterations =  1.0

     negative rho (up, down):  0.123E+01 0.000E+00

     total cpu time spent up to now is    15543.6 secs

     total energy              =   -4526.96450796 Ry
     Harris-Foulkes estimate   =   -4527.04699292 Ry
     estimated scf accuracy    <       0.89404020 Ry

     iteration # 42     ecut=    40.00 Ry     beta=0.15
     Davidson diagonalization with overlap
     ethr =  3.03E-04,  avg # of iterations =  4.5

     negative rho (up, down):  0.123E+01 0.000E+00

     total cpu time spent up to now is    15917.4 secs

     total energy              =   -4526.98479127 Ry
     Harris-Foulkes estimate   =   -4526.98461342 Ry
     estimated scf accuracy    <       0.61709370 Ry

     iteration # 43     ecut=    40.00 Ry     beta=0.15
     Davidson diagonalization with overlap
     ethr =  2.09E-04,  avg # of iterations =  2.3

     negative rho (up, down):  0.122E+01 0.000E+00

     total cpu time spent up to now is    16279.9 secs

     total energy              =   -4526.97404560 Ry
     Harris-Foulkes estimate   =   -4526.98595074 Ry
     estimated scf accuracy    <       0.48312732 Ry

     iteration # 44     ecut=    40.00 Ry     beta=0.15
     Davidson diagonalization with overlap
     ethr =  1.64E-04,  avg # of iterations =  2.5

     negative rho (up, down):  0.118E+01 0.000E+00

     total cpu time spent up to now is    16649.8 secs

     total energy              =   -4526.95397011 Ry
     Harris-Foulkes estimate   =   -4526.97623467 Ry
     estimated scf accuracy    <       0.29357542 Ry

     iteration # 45     ecut=    40.00 Ry     beta=0.15
     Davidson diagonalization with overlap
     ethr =  9.95E-05,  avg # of iterations =  1.0

     negative rho (up, down):  0.115E+01 0.000E+00

     total cpu time spent up to now is    17023.8 secs

     total energy              =   -4526.92926369 Ry
     Harris-Foulkes estimate   =   -4526.95575927 Ry
     estimated scf accuracy    <       0.23528555 Ry

     iteration # 46     ecut=    40.00 Ry     beta=0.15
     Davidson diagonalization with overlap
     ethr =  7.98E-05,  avg # of iterations =  1.2

     negative rho (up, down):  0.113E+01 0.000E+00

     total cpu time spent up to now is    17384.2 secs

     total energy              =   -4526.91867570 Ry
     Harris-Foulkes estimate   =   -4526.93084574 Ry
     estimated scf accuracy    <       0.19927780 Ry

     iteration # 47     ecut=    40.00 Ry     beta=0.15
     Davidson diagonalization with overlap
     ethr =  6.76E-05,  avg # of iterations =  1.0

     negative rho (up, down):  0.106E+01 0.000E+00

     total cpu time spent up to now is    17755.1 secs

     total energy              =   -4526.88460680 Ry
     Harris-Foulkes estimate   =   -4526.91924854 Ry
     estimated scf accuracy    <       0.18415755 Ry

     iteration # 48     ecut=    40.00 Ry     beta=0.15
     Davidson diagonalization with overlap
     ethr =  6.24E-05,  avg # of iterations =  2.3

     negative rho (up, down):  0.100E+01 0.000E+00

     total cpu time spent up to now is    18116.9 secs

     total energy              =   -4526.86881531 Ry
     Harris-Foulkes estimate   =   -4526.88628367 Ry
     estimated scf accuracy    <       0.16350112 Ry

     iteration # 49     ecut=    40.00 Ry     beta=0.15
     Davidson diagonalization with overlap
     ethr =  5.54E-05,  avg # of iterations =  2.0

     negative rho (up, down):  0.977E+00 0.000E+00

     total cpu time spent up to now is    18491.8 secs

     total energy              =   -4526.86598482 Ry
     Harris-Foulkes estimate   =   -4526.86993362 Ry
     estimated scf accuracy    <       0.14583067 Ry

     iteration # 50     ecut=    40.00 Ry     beta=0.15
     Davidson diagonalization with overlap
     ethr =  4.94E-05,  avg # of iterations =  1.0

     negative rho (up, down):  0.934E+00 0.000E+00

     total cpu time spent up to now is    18855.8 secs

          k = 0.0833 0.0833 0.0126     band energies (ev):

  -111.8482-111.7969-111.7888-111.6333-111.6088-111.5927-111.5465-111.3546
  -111.3044 -69.2389 -69.2389 -69.2366 -69.1940 -69.1940 -69.1839 -69.1839
   -69.1795 -69.1771 -69.0535 -69.0290 -69.0283 -69.0223 -69.0223 -68.9976
   -68.9976 -68.9758 -68.9758 -68.9680 -68.9433 -68.9433 -68.8496 -68.7536
   -68.7536 -68.7237 -68.7237 -68.6914 -43.6718 -43.5693 -43.5375 -43.5226
   -28.4076 -28.3654 -28.3619 -28.2506 -28.0304 -27.8628 -27.8313 -27.7658
   -23.6222 -23.5234 -23.5229 -23.4967 -23.4963 -23.4839 -23.4148 -23.4144
   -23.3742 -23.3738 -23.3727 -23.3723 -13.6225 -13.5902 -13.5809 -13.4782
   -13.3222 -13.3149 -13.2903 -13.2828 -13.2795 -13.2722 -13.2138 -13.1850
   -13.1775 -13.1173 -13.0873 -13.0362 -12.9808 -12.9714 -12.8206 -12.8108
   -12.7896 -12.7798 -12.7258 -12.7158  -3.9579  -3.9286  -3.8897  -3.4022
    -3.3476  -3.0761  -2.9839  -2.9072  -2.3127  -2.2457  -2.2159  -2.2089
    -2.1677  -2.1397  -2.1326  -2.0231  -2.0121  -2.0006  -1.9940  -1.9917
    -1.9864  -1.9854  -1.9802  -1.9639  -1.9562  -1.9519  -1.9513  -1.9491
    -1.9450  -1.9407  -1.9380  -1.9015  -1.8474  -1.8355  -1.8258  -1.8117
    -1.8066  -1.8000  -1.7894  -1.7842  -1.7675  -1.7660  -1.7390  -1.7388
    -1.7138  -1.7106  -1.7050  -1.6402  -1.6398  -1.6379  -1.5586  -1.4986
    -1.4759  -1.4755  -1.4079  -1.2436  -1.0236  -0.5333  -0.3906  -0.1246
     0.1419   0.3501   0.6198   0.6509   0.6661   0.6680   0.6706   0.6981
     0.7027   0.7752   0.9622   1.0991   1.1772   1.1932   1.2054   1.2162
     1.2780   1.2864   1.4339   1.5253   1.5410   1.5865   1.8604   1.8951
     1.9412   2.1476   2.1598   2.1702   2.1765   2.3478   2.9630   2.9830
     3.0693   3.0915

          k = 0.0833 0.2500 0.0126     band energies (ev):

  -111.8482-111.7969-111.7888-111.6333-111.6088-111.5927-111.5465-111.3546
  -111.3043 -69.2390 -69.2389 -69.2366 -69.1941 -69.1940 -69.1839 -69.1839
   -69.1795 -69.1771 -69.0535 -69.0290 -69.0283 -69.0223 -69.0223 -68.9976
   -68.9976 -68.9758 -68.9758 -68.9680 -68.9433 -68.9433 -68.8496 -68.7536
   -68.7536 -68.7237 -68.7237 -68.6914 -43.6694 -43.5668 -43.5351 -43.5201
   -28.3817 -28.3393 -28.3359 -28.2245 -28.0036 -27.8358 -27.8043 -27.7387
   -23.6178 -23.5412 -23.5188 -23.5183 -23.4927 -23.4793 -23.4600 -23.4195
   -23.4181 -23.4107 -23.3701 -23.3686 -13.6444 -13.6137 -13.6017 -13.5771
   -13.5435 -13.5348 -13.5090 -13.4308 -13.3166 -13.2871 -13.2548 -13.2443
   -13.1682 -13.1599 -13.1495 -13.1298 -13.0695 -13.0669 -13.0400 -12.9874
   -12.9416 -12.7807 -12.7497 -12.6856  -3.3644  -3.3464  -3.3225  -2.8463
    -2.7525  -2.6525  -2.6190  -2.5942  -2.2019  -2.1687  -2.1660  -2.1178
    -2.0852  -2.0695  -2.0604  -2.0466  -2.0394  -2.0315  -2.0300  -2.0155
    -1.9976  -1.9904  -1.9740  -1.9719  -1.9379  -1.9316  -1.9167  -1.8900
    -1.8784  -1.8779  -1.8562  -1.8545  -1.8428  -1.8420  -1.8408  -1.8201
    -1.8160  -1.8138  -1.8069  -1.8054  -1.7785  -1.7770  -1.7530  -1.7456
    -1.7309  -1.6919  -1.6635  -1.6467  -1.5887  -1.5756  -1.5499  -1.5414
    -1.4918  -1.4828  -0.8773  -0.8273  -0.7603  -0.4200   0.1234   0.2238
[...]
   -10.3984 -10.3961 -10.3951 -10.3491 -10.2933 -10.2862 -10.2779 -10.2727
   -10.0637 -10.0271 -10.0108 -10.0068   0.0265   0.0297   0.0357   0.4656
     0.4752   0.4861   0.4913   0.5040   0.5080   0.5126   0.5400   0.6288
     0.6322   0.6378   0.6942   0.6984   0.7029   0.7106   0.7138   0.7192
     0.7912   0.7989   0.8034   0.8090   0.8199   0.8802   0.8850   0.8901
     0.8978   0.9112   0.9207   0.9224   0.9231   0.9263   0.9370   0.9389
     0.9501   0.9661   0.9721   0.9763   0.9814   1.0698   1.0938   1.1315
     1.1998   1.2309   1.2430   1.2479   1.3088   1.3279   1.3614   1.3762
     1.4127   1.7753   1.9129   1.9435   1.9740   2.3276   2.5494   2.6512
     2.7702   2.9377   3.0266   3.1007   3.1499   3.1954   3.6656   3.7362
     3.8096   3.8504   3.8956   3.9328   3.9809   4.1150   4.4264   4.4336
     4.4598   4.4879   4.5364   4.5458   4.5666   4.5939   4.6349   4.6505
     4.7109   4.7507   4.8664   4.9309   4.9434   4.9602   4.9902   5.0242
     5.0511   5.0997

          k = 0.2500 0.2500 0.0126 ( 35092 PWs)   bands (ev):

  -109.1243-109.1202-109.1161-108.8600-108.8506-108.8496-108.8408-108.7289
  -108.3772 -66.5183 -66.5182 -66.5141 -66.5141 -66.5093 -66.5093 -66.5007
   -66.4964 -66.4930 -66.2815 -66.2729 -66.2719 -66.2708 -66.2490 -66.2489
   -66.2383 -66.2383 -66.2373 -66.2373 -66.2250 -66.2249 -66.1473 -66.1473
   -66.0943 -65.7960 -65.7885 -65.7885 -40.7244 -40.6521 -40.6471 -40.6414
   -25.4903 -25.4882 -25.4849 -25.4383 -25.1368 -25.1025 -25.0843 -25.0799
   -20.6943 -20.6436 -20.6347 -20.6287 -20.6003 -20.5984 -20.5414 -20.5401
   -20.5394 -20.5381 -20.5346 -20.5326 -10.7643 -10.7622 -10.7616 -10.7349
   -10.7327 -10.7320 -10.7146 -10.6850 -10.6847 -10.6823 -10.6743 -10.6278
   -10.4445 -10.4108 -10.4069 -10.3906 -10.3866 -10.3736 -10.3573 -10.3532
   -10.2967 -10.2899 -10.2815 -10.2763  -0.1535  -0.1386  -0.1282   0.2903
     0.4669   0.4848   0.4911   0.4964   0.6260   0.6293   0.6309   0.6337
     0.6359   0.6388   0.6624   0.6668   0.6720   0.6993   0.7034   0.7085
     0.7261   0.7343   0.7418   0.8681   0.8787   0.8828   0.8889   0.8897
     0.8907   0.8912   0.8987   0.9010   0.9015   0.9021   0.9037   0.9094
     0.9238   0.9243   0.9259   0.9343   0.9383   0.9389   0.9419   0.9496
     0.9662   1.0341   1.1071   1.1133   1.2970   1.3008   1.3186   1.3776
     1.3798   1.4018   2.2878   2.3346   2.3809   2.6759   3.3089   3.3348
     3.3516   3.3877   3.3989   3.4065   3.5198   3.5433   3.6325   3.7387
     3.7501   3.9454   3.9654   3.9854   4.0151   4.0582   4.0685   4.0766
     4.1263   4.1873   4.2613   4.3262   4.3873   4.4260   4.4964   4.5370
     4.5847   4.6382   5.1204   5.1263   5.1433   5.2252   5.4430   5.4914
     5.4982   5.5217

          k = 0.2500 0.4167 0.0126 ( 34983 PWs)   bands (ev):

  -109.1243-109.1202-109.1161-108.8600-108.8506-108.8495-108.8408-108.7289
  -108.3772 -66.5183 -66.5182 -66.5141 -66.5141 -66.5093 -66.5093 -66.5007
   -66.4964 -66.4930 -66.2815 -66.2729 -66.2719 -66.2708 -66.2490 -66.2489
   -66.2383 -66.2383 -66.2374 -66.2373 -66.2250 -66.2249 -66.1474 -66.1473
   -66.0943 -65.7960 -65.7886 -65.7885 -40.7220 -40.6497 -40.6447 -40.6390
   -25.4643 -25.4621 -25.4588 -25.4122 -25.1101 -25.0759 -25.0577 -25.0533
   -20.6899 -20.6443 -20.6391 -20.6301 -20.6241 -20.5948 -20.5857 -20.5844
   -20.5789 -20.5358 -20.5344 -20.5289 -11.0426 -11.0405 -11.0402 -10.9922
   -10.7307 -10.7079 -10.7057 -10.7048 -10.6927 -10.6765 -10.6724 -10.6580
   -10.6419 -10.6397 -10.6316 -10.5848 -10.3817 -10.3447 -10.3283 -10.3243
   -10.2533 -10.2464 -10.2375 -10.2323   0.3811   0.3867   0.3922   0.5390
     0.5411   0.5473   0.6038   0.6080   0.6107   0.6120   0.6130   0.6183
     0.6657   0.6701   0.6747   0.6977   0.8279   0.8422   0.8434   0.8463
     0.8513   0.8545   0.8560   0.8577   0.8624   0.8677   0.8699   0.8709
     0.8730   0.8832   0.8845   0.8909   0.8942   0.8981   0.9061   0.9092
     0.9426   0.9595   0.9870   0.9929   0.9991   1.0483   1.1316   1.2112
     1.2873   1.2879   1.3004   1.3014   1.3169   1.3503   1.3536   1.3760
     1.4390   1.8543   2.3838   2.3974   2.4069   2.7643   2.7727   2.7839
     2.8477   3.0878   3.1717   3.2148   3.2677   3.2893   3.3468   3.3549
     3.3714   3.5202   3.5690   3.6347   3.6786   3.7159   3.8060   3.8518
     3.9157   4.0532   4.1660   4.2641   4.2896   4.3628   4.3993   4.4834
     4.5938   4.7324   4.8176   5.4086   5.5055   5.5179   5.5503   5.5729
     5.6237   5.6624

          k = 0.4167 0.4167 0.0126 ( 34935 PWs)   bands (ev):

  -109.1243-109.1202-109.1161-108.8600-108.8506-108.8495-108.8408-108.7289
  -108.3772 -66.5183 -66.5183 -66.5141 -66.5141 -66.5093 -66.5093 -66.5007
   -66.4964 -66.4930 -66.2815 -66.2729 -66.2719 -66.2708 -66.2490 -66.2490
   -66.2383 -66.2383 -66.2374 -66.2374 -66.2250 -66.2250 -66.1474 -66.1474
   -66.0943 -65.7960 -65.7886 -65.7886 -40.7196 -40.6473 -40.6423 -40.6366
   -25.4386 -25.4364 -25.4331 -25.3866 -25.0840 -25.0497 -25.0315 -25.0271
   -20.6857 -20.6393 -20.6388 -20.6347 -20.6257 -20.6198 -20.5807 -20.5802
   -20.5794 -20.5789 -20.5739 -20.5734 -10.9968 -10.9947 -10.9943 -10.9904
   -10.9883 -10.9878 -10.9464 -10.9400 -10.6797 -10.6718 -10.6421 -10.6344
   -10.6259 -10.6219 -10.6180 -10.6140 -10.6023 -10.6001 -10.5920 -10.5450
   -10.2125 -10.2058 -10.1963 -10.1912   0.4008   0.4092   0.4171   0.5071
     0.5127   0.5181   0.5616   0.6328   0.6369   0.6419   0.6471   0.6512
     0.6560   0.8122   0.8205   0.8241   0.8293   0.8372   0.8386   0.8398
     0.8443   0.8448   0.8482   0.8492   0.8503   0.8569   0.8575   0.8597
     0.8709   0.8779   0.8788   0.8854   1.0060   1.0236   1.0982   1.0985
     1.1124   1.1130   1.1256   1.1270   1.1345   1.1395   1.2023   1.2160
     1.2771   1.3092   1.3301   1.4799   1.5053   1.5102   1.5201   1.5289
     1.5888   1.9938   2.4932   2.5094   2.5560   2.5707   2.5887   2.6121
     2.6240   2.7018   2.7042   2.9841   3.0826   3.1496   3.2006   3.2590
     3.2848   3.3858   3.4254   3.5153   3.5176   3.5858   3.6536   3.6770
     3.8083   3.9295   4.2298   4.4075   4.4678   4.5592   4.5873   4.6714
     4.6851   4.7866   4.9454   5.0128   5.0517   5.1656   5.2751   5.3928
     5.5673   5.8435

     the Fermi energy is     3.2481 ev

!    total energy              =   -4526.82159053 Ry
     Harris-Foulkes estimate   =   -4526.82160473 Ry
     estimated scf accuracy    <       0.00001514 Ry

     convergence has been achieved in   9 iterations

     Forces acting on atoms (Ry/au):


     negative rho (up, down):  0.874E+00 0.000E+00
     atom    1 type  1   force =     0.00000000    0.00000000   -0.01047759
     atom    2 type  1   force =     0.00000000    0.00000000   -0.01053539
     atom    3 type  1   force =     0.00000000    0.00000000   -0.01031750
     atom    4 type  1   force =     0.00000000    0.00000000    0.00116303
     atom    5 type  1   force =     0.00000000    0.00000000    0.01455282
     atom    6 type  1   force =     0.00000000    0.00000000    0.01906354
     atom    7 type  1   force =     0.00000000    0.00000000    0.01909278
     atom    8 type  1   force =     0.00000000    0.00000000    0.02210879
     atom    9 type  2   force =     0.00000000    0.00000000   -0.03078368
     atom   10 type  2   force =     0.00000000    0.00000000   -0.02590136
     atom   11 type  2   force =     0.00000000    0.00000000   -0.02607872
     atom   12 type  2   force =     0.00000000    0.00000000   -0.02578278
     atom   13 type  3   force =     0.00000000    0.00000000   -0.00501585
     atom   14 type  3   force =     0.00000000    0.00000000   -0.00641434
     atom   15 type  3   force =     0.00000000    0.00000000   -0.00852191
     atom   16 type  3   force =     0.00000000    0.00000000   -0.00858637
     atom   17 type  3   force =     0.00000000    0.00000000    0.03799302
     atom   18 type  3   force =     0.00000000    0.00000000    0.02558902
     atom   19 type  3   force =     0.00000000    0.00000000    0.02502737
     atom   20 type  3   force =     0.00000000    0.00000000    0.02278988
     atom   21 type  3   force =     0.00000000    0.00000000   -0.01896477

     Total force =     0.092395     Total SCF correction =     0.017939
     SCF correction compared to forces is large: reduce conv_thr to get better values


     entering subroutine stress ...


     negative rho (up, down):  0.874E+00 0.000E+00
          total   stress  (Ry/bohr**3)                   (kbar)     P=  -25.44
  -0.00018540   0.00000000   0.00000000        -27.27      0.00      0.00
   0.00000000  -0.00018540   0.00000000          0.00    -27.27      0.00
   0.00000000   0.00000000  -0.00014793          0.00      0.00    -21.76


     Entering Dynamics;  it =    43   time =  0.04066 pico-seconds

  new lattice vectors (alat unit) :
   1.000000000   0.000000000   0.000000000
   0.000000000   1.000000000   0.000000000
   0.000000000   0.000000000  19.811243091
  new unit-cell volume =   8201.9865 (a.u.)^3
  new positions in cryst coord
Ba       0.500000000   0.500000000   0.330582979
Ba       0.500000000   0.500000000   0.482118069
Ba       0.500000000   0.500000000   0.633658738
Ba       0.500000000   0.500000000   0.785494211
Ba       0.500000000   0.500000000   0.275706177
Ba       0.500000000   0.500000000   0.427347005
Ba       0.500000000   0.500000000   0.578891460
Ba       0.500000000   0.500000000   0.730499703
Y        0.500000000   0.500000000   0.226031164
Y        0.500000000   0.500000000   0.377765129
Y        0.500000000   0.500000000   0.529293720
Y        0.500000000   0.500000000   0.680820209
Cu       0.000000000   0.000000000   0.302797275
Cu       0.000000000   0.000000000   0.454353299
Cu       0.000000000   0.000000000   0.605859072
Cu       0.000000000   0.000000000   0.757375285
Cu       0.000000000   0.000000000   0.207073735
Cu       0.000000000   0.000000000   0.358134148
Cu       0.000000000   0.000000000   0.509672965
Cu       0.000000000   0.000000000   0.661182906
Cu       0.000000000   0.000000000   0.810592067
  new positions in cart coord (alat unit)
Ba       0.500000000   0.500000000   6.549259752
Ba       0.500000000   0.500000000   9.551358269
Ba       0.500000000   0.500000000  12.553567298
Ba       0.500000000   0.500000000  15.561616769
Ba       0.500000000   0.500000000   5.462082095
Ba       0.500000000   0.500000000   8.466275396
Ba       0.500000000   0.500000000  11.468559434
Ba       0.500000000   0.500000000  14.472107187
Y        0.500000000   0.500000000   4.477958334
Y        0.500000000   0.500000000   7.483996809
Y        0.500000000   0.500000000  10.485966552
Y        0.500000000   0.500000000  13.487894665
Cu       0.000000000   0.000000000   5.998790418
Cu       0.000000000   0.000000000   9.001303653
Cu       0.000000000   0.000000000  12.002821354
Cu       0.000000000   0.000000000  15.004545876
Cu       0.000000000   0.000000000   4.102388098
Cu       0.000000000   0.000000000   7.095082672
Cu       0.000000000   0.000000000  10.097255004
Cu       0.000000000   0.000000000  13.098855275
Cu       0.000000000   0.000000000  16.058836483

     Ekin =     0.05862505 Ry    T =  103.0 K  Etot = -4526.76296549
     new unit-cell volume =   8201.98655 a.u.^3 (  1215.40899 Ang^3 )

CELL_PARAMETERS (alat=  7.45307987)
   1.000000000   0.000000000   0.000000000
   0.000000000   1.000000000   0.000000000
   0.000000000   0.000000000  19.811243091

ATOMIC_POSITIONS (angstrom)
Ba       1.972000000   1.972000000  25.830280462    0   0   1
Ba       1.972000000   1.972000000  37.670557011    0   0   1
Ba       1.972000000   1.972000000  49.511269423    0   0   1
Ba       1.972000000   1.972000000  61.375016536    0   0   1
Ba       1.972000000   1.972000000  21.542451783    0   0   1
Ba       1.972000000   1.972000000  33.390990160    0   0   1
Ba       1.972000000   1.972000000  45.231998409    0   0   1
Ba       1.972000000   1.972000000  57.077990744    0   0   1
Y        1.972000000   1.972000000  17.661067670    0   0   1
Y        1.972000000   1.972000000  29.516883416    0   0   1
Y        1.972000000   1.972000000  41.356652081    0   0   1
Y        1.972000000   1.972000000  53.196256558    0   0   1
Cu       0.000000000   0.000000000  23.659229410    0   0   1
Cu       0.000000000   0.000000000  35.501141606    0   0   1
Cu       0.000000000   0.000000000  47.339127420    0   0   1
Cu       0.000000000   0.000000000  59.177928936    0   0   1
Cu       0.000000000   0.000000000  16.179818657    0   0   1
Cu       0.000000000   0.000000000  27.983006059    0   0   1
Cu       0.000000000   0.000000000  39.823573735    0   0   1
Cu       0.000000000   0.000000000  51.661885204    0   0   1
Cu       0.000000000   0.000000000  63.336051090    0   0   1



     Writing output data file test_1_2.save
     Check: negative starting charge=   -0.934679
     NEW-OLD atomic charge density approx. for the potential
     NEW k-points:
        k(    1) = (   0.0833333   0.0833333   0.0126191), wk =   0.2222222
        k(    2) = (   0.0833333   0.2500000   0.0126191), wk =   0.4444444
        k(    3) = (   0.0833333   0.4166667   0.0126191), wk =   0.4444444
        k(    4) = (   0.2500000   0.2500000   0.0126191), wk =   0.2222222
        k(    5) = (   0.2500000   0.4166667   0.0126191), wk =   0.4444444
        k(    6) = (   0.4166667   0.4166667   0.0126191), wk =   0.2222222

     Check: negative/imaginary core charge=   -0.000009    0.000000
     Check: negative starting charge=   -0.935055

     negative rho (up, down):  0.874E+00 0.000E+00
     extrapolated charge  294.99865, renormalised to  295.00000

     total cpu time spent up to now is   255715.3 secs

     per-process dynamical memory:   988.3 Mb

     Self-consistent Calculation

     iteration #  1     ecut=    40.00 Ry     beta=0.15
     Davidson diagonalization with overlap
     ethr =  1.00E-06,  avg # of iterations =  8.2

     negative rho (up, down):  0.874E+00 0.000E+00

     total cpu time spent up to now is   256615.3 secs

     total energy              =   -4526.82532545 Ry
     Harris-Foulkes estimate   =   -4527.11777235 Ry
     estimated scf accuracy    <       1.41520732 Ry

     iteration #  2     ecut=    40.00 Ry     beta=0.15
     Davidson diagonalization with overlap
     ethr =  4.80E-04,  avg # of iterations =  1.0

     negative rho (up, down):  0.874E+00 0.000E+00

     total cpu time spent up to now is   257104.9 secs

     total energy              =   -4526.82360749 Ry
     Harris-Foulkes estimate   =   -4526.82570450 Ry
     estimated scf accuracy    <       0.74116393 Ry

     iteration #  3     ecut=    40.00 Ry     beta=0.15
     Davidson diagonalization with overlap
     ethr =  2.51E-04,  avg # of iterations =  1.0

     negative rho (up, down):  0.874E+00 0.000E+00

     total cpu time spent up to now is   257605.3 secs

     total energy              =   -4526.82395014 Ry
     Harris-Foulkes estimate   =   -4526.82430687 Ry
     estimated scf accuracy    <       0.08839487 Ry

     iteration #  4     ecut=    40.00 Ry     beta=0.15
     Davidson diagonalization with overlap
     ethr =  3.00E-05,  avg # of iterations =  1.0

     negative rho (up, down):  0.874E+00 0.000E+00

     total cpu time spent up to now is   258108.5 secs

     total energy              =   -4526.82389819 Ry
     Harris-Foulkes estimate   =   -4526.82410602 Ry
     estimated scf accuracy    <       0.00710967 Ry

     iteration #  5     ecut=    40.00 Ry     beta=0.15
     Davidson diagonalization with overlap
     ethr =  2.41E-06,  avg # of iterations =  6.5

     negative rho (up, down):  0.874E+00 0.000E+00

     total cpu time spent up to now is   258731.8 secs

     total energy              =   -4526.82383920 Ry
     Harris-Foulkes estimate   =   -4526.82395093 Ry
     estimated scf accuracy    <       0.00182656 Ry

     iteration #  6     ecut=    40.00 Ry     beta=0.15
     Davidson diagonalization with overlap
     ethr =  6.19E-07,  avg # of iterations =  1.3

     negative rho (up, down):  0.874E+00 0.000E+00

     total cpu time spent up to now is   259218.1 secs

     total energy              =   -4526.82382909 Ry
     Harris-Foulkes estimate   =   -4526.82388533 Ry
     estimated scf accuracy    <       0.00068778 Ry

     iteration #  7     ecut=    40.00 Ry     beta=0.15
     Davidson diagonalization with overlap
     ethr =  2.33E-07,  avg # of iterations =  2.5

     negative rho (up, down):  0.874E+00 0.000E+00

     total cpu time spent up to now is   259923.1 secs

     total energy              =   -4526.82384360 Ry
     Harris-Foulkes estimate   =   -4526.82385321 Ry
     estimated scf accuracy    <       0.00016288 Ry

     iteration #  8     ecut=    40.00 Ry     beta=0.15
     Davidson diagonalization with overlap
     ethr =  5.52E-08,  avg # of iterations =  1.8

     negative rho (up, down):  0.874E+00 0.000E+00

     total cpu time spent up to now is   260467.1 secs

     total energy              =   -4526.82382944 Ry
     Harris-Foulkes estimate   =   -4526.82384815 Ry
     estimated scf accuracy    <       0.00010006 Ry

     iteration #  9     ecut=    40.00 Ry     beta=0.15
     Davidson diagonalization with overlap
forrtl: severe (67): input statement requires too much data, unit 16, file /home/dwang2/2013/QE.YBCO_on_STO/test1_2.YBCO_STO.QE/../temp/test_1_2.igk
Image              PC                Routine            Line        Source             
pw.x               0000000000B57ABA  Unknown               Unknown  Unknown
pw.x               0000000000B56635  Unknown               Unknown  Unknown
pw.x               0000000000AFC3B6  Unknown               Unknown  Unknown
pw.x               0000000000A84CD6  Unknown               Unknown  Unknown
pw.x               0000000000A84449  Unknown               Unknown  Unknown
pw.x               0000000000AAE99B  Unknown               Unknown  Unknown
pw.x               0000000000AAC977  Unknown               Unknown  Unknown
pw.x               00000000005492CB  Unknown               Unknown  Unknown
pw.x               0000000000406E1C  Unknown               Unknown  Unknown
pw.x               0000000000406685  Unknown               Unknown  Unknown
pw.x               000000000040639C  Unknown               Unknown  Unknown
libc.so.6          00000031CE221735  Unknown               Unknown  Unknown
pw.x               0000000000406279  Unknown               Unknown  Unknown
forrtl: severe (67): input statement requires too much data, unit 16, file /home/dwang2/2013/QE.YBCO_on_STO/test1_2.YBCO_STO.QE/../temp/test_1_2.igk2
Image              PC                Routine            Line        Source             
pw.x               0000000000B57ABA  Unknown               Unknown  Unknown
pw.x               0000000000B56635  Unknown               Unknown  Unknown
pw.x               0000000000AFC3B6  Unknown               Unknown  Unknown
pw.x               0000000000A84CD6  Unknown               Unknown  Unknown
pw.x               0000000000A84449  Unknown               Unknown  Unknown
pw.x               0000000000AAE99B  Unknown               Unknown  Unknown
pw.x               0000000000AAC977  Unknown               Unknown  Unknown
pw.x               00000000005492CB  Unknown               Unknown  Unknown
pw.x               0000000000406E1C  Unknown               Unknown  Unknown
pw.x               0000000000406685  Unknown               Unknown  Unknown
pw.x               000000000040639C  Unknown               Unknown  Unknown
libc.so.6          00000031CE221735  Unknown               Unknown  Unknown
pw.x               0000000000406279  Unknown               Unknown  Unknown

===================================================================================
=   BAD TERMINATION OF ONE OF YOUR APPLICATION PROCESSES
=   EXIT CODE: 67
=   CLEANING UP REMAINING PROCESSES
=   YOU CAN IGNORE THE BELOW CLEANUP MESSAGES
===================================================================================
