
     Program PWSCF v.5.0.2 (svn rev. 9656) starts on 13Dec2013 at 17:34:44 

     This program is part of the open-source Quantum ESPRESSO suite
     for quantum simulation of materials; please cite
         "P. Giannozzi et al., J. Phys.:Condens. Matter 21 395502 (2009);
          URL http://www.quantum-espresso.org", 
     in publications or presentations arising from this work. More details at
     http://www.quantum-espresso.org/quote.php

     Parallel version (MPI & OpenMP), running on      32 processor cores
     Number of MPI processes:                 4
     Threads/MPI process:                     8
     K-points division:     npool     =       4

     Current dimensions of program PWSCF are:
     Max number of different atomic species (ntypx) = 10
     Max number of k-points (npk) =  40000
     Max angular momentum in pseudopotentials (lmaxx) =  3
     Reading input from YBCO_STO.pw.in
Warning: card CU    0.000000    0.000000   19.488379 ignored
Warning: card CU    0.000000    0.000000   31.330379 ignored
Warning: card CU    0.000000    0.000000   43.172379 ignored
Warning: card CU    0.000000    0.000000   55.014378 ignored
Warning: card  O    0.000000    0.000000   25.569246 ignored
Warning: card  O    0.000000    0.000000   37.411247 ignored
Warning: card  O    0.000000    0.000000   49.253250 ignored
Warning: card  O    0.000000    0.000000   61.095249 ignored
Warning: card  O    0.000000    0.000000   21.798754 ignored
Warning: card  O    0.000000    0.000000   33.640755 ignored
Warning: card  O    0.000000    0.000000   45.482754 ignored
Warning: card  O    0.000000    0.000000   57.324753 ignored
Warning: card  O    1.972000    0.000000   16.299328 ignored
Warning: card  O    1.972000    0.000000   28.141329 ignored
Warning: card  O    1.972000    0.000000   39.983330 ignored
Warning: card  O    1.972000    0.000000   51.825329 ignored
Warning: card  O    1.972000    0.000000   63.667328 ignored
Warning: card  O    1.972000    0.000000   19.226671 ignored
Warning: card  O    1.972000    0.000000   31.068672 ignored
Warning: card  O    1.972000    0.000000   42.910671 ignored
Warning: card  O    1.972000    0.000000   54.752670 ignored
Warning: card  O    0.000000    1.972000   16.309986 ignored
Warning: card  O    0.000000    1.972000   28.151987 ignored
Warning: card  O    0.000000    1.972000   39.993988 ignored
Warning: card  O    0.000000    1.972000   51.835983 ignored
Warning: card  O    0.000000    1.972000   63.677982 ignored
Warning: card  O    0.000000    1.972000   19.216013 ignored
Warning: card  O    0.000000    1.972000   31.058014 ignored
Warning: card  O    0.000000    1.972000   42.900013 ignored
Warning: card  O    0.000000    1.972000   54.742012 ignored
Warning: card  O    0.000000    1.972000   23.684000 ignored
Warning: card  O    0.000000    1.972000   35.526001 ignored
Warning: card  O    0.000000    1.972000   47.368000 ignored
Warning: card  O    0.000000    1.972000   59.209999 ignored
Warning: card SR    1.972000    1.972000    1.972000 ignored
Warning: card SR    1.972000    1.972000    5.916000 ignored
Warning: card SR    1.972000    1.972000    9.860000 ignored
Warning: card SR    1.972000    1.972000   13.804000 ignored
Warning: card TI    0.000000    0.000000    0.000000 ignored
Warning: card TI    0.000000    0.000000    3.944000 ignored
Warning: card TI    0.000000    0.000000    7.888000 ignored
Warning: card TI    0.000000    0.000000   11.832000 ignored
Warning: card  O    1.972000    0.000000    0.000000 ignored
Warning: card  O    1.972000    0.000000    3.944000 ignored
Warning: card  O    1.972000    0.000000    7.888000 ignored
Warning: card  O    1.972000    0.000000   11.832000 ignored
Warning: card  O    0.000000    1.972000    0.000000 ignored
Warning: card  O    0.000000    1.972000    3.944000 ignored
Warning: card  O    0.000000    1.972000    7.888000 ignored
Warning: card  O    0.000000    1.972000   11.832000 ignored
Warning: card  O    0.000000    0.000000    1.972000 ignored
Warning: card  O    0.000000    0.000000    5.916000 ignored
Warning: card  O    0.000000    0.000000    9.860000 ignored
Warning: card  O    0.000000    0.000000   13.804000 ignored

     Subspace diagonalization in iterative solution of the eigenvalue problem:
     a serial algorithm will be used

     Message from routine setup:
     Dynamics, you should have no symmetries
 
     G-vector sticks info
     --------------------
     sticks:   dense  smooth     PW     G-vecs:    dense   smooth      PW
     Sum         885     709    213               392013   279895   43893
 

     Title: 
     YBCO_STO_PBE_from_GBRV                                                     


     bravais-lattice index     =            8
     lattice parameter (alat)  =       7.4531  a.u.
     unit-cell volume          =    8202.8743 (a.u.)^3
     number of atoms/cell      =           21
     number of atomic types    =            6
     number of electrons       =       295.00
     number of Kohn-Sham states=          178
     kinetic-energy cutoff     =      40.0000  Ry
     charge density cutoff     =     200.0000  Ry
     convergence threshold     =      2.0E-05
     mixing beta               =       0.1500
     number of iterations used =            8  local-TF  mixing
     Exchange-correlation      = SLA  PW   PBE  PBE ( 1 4 3 4 0)
     EXX-fraction              =        0.00
     nstep                     =          100


     celldm(1)=   7.453080  celldm(2)=   1.000000  celldm(3)=  19.813387
     celldm(4)=   0.000000  celldm(5)=   0.000000  celldm(6)=   0.000000

     crystal axes: (cart. coord. in units of alat)
               a(1) = (   1.000000   0.000000   0.000000 )  
               a(2) = (   0.000000   1.000000   0.000000 )  
               a(3) = (   0.000000   0.000000  19.813387 )  

     reciprocal axes: (cart. coord. in units 2 pi/alat)
               b(1) = (  1.000000  0.000000  0.000000 )  
               b(2) = (  0.000000  1.000000  0.000000 )  
               b(3) = (  0.000000  0.000000  0.050471 )  


     PseudoPot. # 1 for Ba read from file:
     ../pbe/ba_pbe_v1.uspp.F.UPF
     MD5 check sum: 3380f63c22b3abf76d74aa74136bb909
     Pseudo is Ultrasoft + core correction, Zval = 10.0
     Generated by new atomic code, or converted to UPF format
     Using radial grid of  907 points,  7 beta functions with: 
                l(1) =   0
                l(2) =   0
                l(3) =   1
                l(4) =   1
                l(5) =   2
                l(6) =   2
                l(7) =   3
     Q(r) pseudized with  6 coefficients,  rinner =    1.700   1.700   1.700
                                                       1.700   1.700   1.700
                                                       1.700

     PseudoPot. # 2 for Y  read from file:
     ../pbe/y_pbe_v1.uspp.F.UPF
     MD5 check sum: 2cf71db95cafeb975fc457bd7f14888e
     Pseudo is Ultrasoft + core correction, Zval = 11.0
     Generated by new atomic code, or converted to UPF format
     Using radial grid of  885 points,  6 beta functions with: 
                l(1) =   0
                l(2) =   0
                l(3) =   1
                l(4) =   1
                l(5) =   2
                l(6) =   2
     Q(r) pseudized with  6 coefficients,  rinner =    1.200   1.200   1.200
                                                       1.200   1.200

     PseudoPot. # 3 for Cu read from file:
     ../pbe/cu_pbe_v1.uspp.F.UPF
     MD5 check sum: dd7df6c276b3c1af358798b42dbd4e5a
     Pseudo is Ultrasoft + core correction, Zval = 19.0
     Generated by new atomic code, or converted to UPF format
     Using radial grid of  867 points,  6 beta functions with: 
                l(1) =   0
                l(2) =   0
                l(3) =   1
                l(4) =   1
                l(5) =   2
                l(6) =   2
     Q(r) pseudized with  8 coefficients,  rinner =    1.100   1.100   1.100
                                                       1.100   1.100

     PseudoPot. # 4 for O  read from file:
     ../pbe/o_pbe_v1.01.uspp.F.UPF
     MD5 check sum: 2bcb18d16ea4b960afae9ec6d52f22d2
     Pseudo is Ultrasoft + core correction, Zval =  6.0
     Generated by new atomic code, or converted to UPF format
     Using radial grid of  737 points,  5 beta functions with: 
                l(1) =   0
                l(2) =   0
                l(3) =   1
                l(4) =   1
                l(5) =   2
     Q(r) pseudized with  8 coefficients,  rinner =    0.900   0.900   0.900
                                                       0.900   0.900

     PseudoPot. # 5 for Sr read from file:
     ../pbe/sr_pbe_v1.uspp.F.UPF
     MD5 check sum: 6b418c05fbe9db5448babca5e47b7a5b
     Pseudo is Ultrasoft + core correction, Zval = 10.0
     Generated by new atomic code, or converted to UPF format
     Using radial grid of  883 points,  6 beta functions with: 
                l(1) =   0
                l(2) =   0
                l(3) =   1
                l(4) =   1
                l(5) =   2
                l(6) =   2
     Q(r) pseudized with  6 coefficients,  rinner =    1.400   1.400   1.400
                                                       1.400   1.400

     PseudoPot. # 6 for Ti read from file:
     ../pbe/ti_pbe_v1.uspp.F.UPF
     MD5 check sum: bcc8f6961b3b91f0cac3ca967d22d0fb
     Pseudo is Ultrasoft + core correction, Zval = 12.0
     Generated by new atomic code, or converted to UPF format
     Using radial grid of  851 points,  6 beta functions with: 
                l(1) =   0
                l(2) =   0
                l(3) =   1
                l(4) =   1
                l(5) =   2
                l(6) =   2
     Q(r) pseudized with  6 coefficients,  rinner =    1.000   1.000   1.000
                                                       1.000   1.000

     atomic species   valence    mass     pseudopotential
        Ba            10.00   137.32700     Ba( 1.00)
        Y             11.00    88.90585     Y ( 1.00)
        Cu            19.00    63.54600     Cu( 1.00)
        O              6.00    15.99940     O ( 1.00)
        Sr            10.00    87.62000     Sr( 1.00)
        Ti            12.00    47.88000     Ti( 1.00)

      cell mass = 153.96920 AMU 

      8 Sym. Ops. (no inversion) found



   Cartesian axes

     site n.     atom                  positions (alat units)
         1           Ba  tau(   1) = (   0.5000000   0.5000000   6.5545355  )
         2           Ba  tau(   2) = (   0.5000000   0.5000000   9.5570712  )
         3           Ba  tau(   3) = (   0.5000000   0.5000000  12.5596065  )
         4           Ba  tau(   4) = (   0.5000000   0.5000000  15.5621417  )
         5           Ba  tau(   5) = (   0.5000000   0.5000000   5.4556065  )
         6           Ba  tau(   6) = (   0.5000000   0.5000000   8.4581422  )
         7           Ba  tau(   7) = (   0.5000000   0.5000000  11.4606775  )
         8           Ba  tau(   8) = (   0.5000000   0.5000000  14.4632130  )
         9           Y   tau(   9) = (   0.5000000   0.5000000   4.5038032  )
        10           Y   tau(  10) = (   0.5000000   0.5000000   7.5063387  )
        11           Y   tau(  11) = (   0.5000000   0.5000000  10.5088740  )
        12           Y   tau(  12) = (   0.5000000   0.5000000  13.5114100  )
        13           Cu  tau(  13) = (   0.0000000   0.0000000   6.0050710  )
        14           Cu  tau(  14) = (   0.0000000   0.0000000   9.0076067  )
        15           Cu  tau(  15) = (   0.0000000   0.0000000  12.0101420  )
        16           Cu  tau(  16) = (   0.0000000   0.0000000  15.0126772  )
        17           Cu  tau(  17) = (   0.0000000   0.0000000   4.0663339  )
        18           Cu  tau(  18) = (   0.0000000   0.0000000   7.0688697  )
        19           Cu  tau(  19) = (   0.0000000   0.0000000  10.0714052  )
        20           Cu  tau(  20) = (   0.0000000   0.0000000  13.0739407  )
        21           Cu  tau(  21) = (   0.0000000   0.0000000  16.0764759  )

     number of k points=     6  gaussian smearing, width (Ry)=  0.0100
                       cart. coord. in units 2pi/alat
        k(    1) = (   0.0833333   0.0833333   0.0126177), wk =   0.2222222
        k(    2) = (   0.0833333   0.2500000   0.0126177), wk =   0.4444444
        k(    3) = (   0.0833333   0.4166667   0.0126177), wk =   0.4444444
        k(    4) = (   0.2500000   0.2500000   0.0126177), wk =   0.2222222
        k(    5) = (   0.2500000   0.4166667   0.0126177), wk =   0.4444444
        k(    6) = (   0.4166667   0.4166667   0.0126177), wk =   0.2222222

     Dense  grid:   392013 G-vectors     FFT dimensions: (  36,  36, 675)

     Smooth grid:   279895 G-vectors     FFT dimensions: (  32,  32, 600)

     Largest allocated arrays     est. size (Mb)     dimensions
        Kohn-Sham Wavefunctions        95.66 Mb     (  35219,  178)
        NL pseudopotentials           233.23 Mb     (  35219,  434)
        Each V/rho on FFT grid         13.35 Mb     ( 874800)
        Each G-vector array             2.99 Mb     ( 392013)
        G-vector shells                 2.99 Mb     ( 392013)
     Largest temporary arrays     est. size (Mb)     dimensions
        Auxiliary wavefunctions       382.63 Mb     (  35219,  712)
        Each subspace H/S matrix        7.74 Mb     ( 712, 712)
        Each <psi_i|beta_j> matrix      1.18 Mb     (    434,  178)
        Arrays for rho mixing         106.79 Mb     ( 874800,   8)
     writing wfc files to a dedicated directory

     Check: negative/imaginary core charge=   -0.000009    0.000000

     Initial potential from superposition of free atoms
     Check: negative starting charge=   -0.935242

     starting charge  285.86211, renormalised to  295.00000

     negative rho (up, down):  0.965E+00 0.000E+00
     Starting wfc are  273 randomized atomic wfcs

     total cpu time spent up to now is      264.1 secs

     per-process dynamical memory:   988.3 Mb

     Self-consistent Calculation

     iteration #  1     ecut=    40.00 Ry     beta=0.15
     Davidson diagonalization with overlap
