
     Program PWSCF v.5.0.2 (svn rev. 9656) starts on  7Dec2013 at 17:18:21 

     This program is part of the open-source Quantum ESPRESSO suite
     for quantum simulation of materials; please cite
         "P. Giannozzi et al., J. Phys.:Condens. Matter 21 395502 (2009);
          URL http://www.quantum-espresso.org", 
     in publications or presentations arising from this work. More details at
     http://www.quantum-espresso.org/quote.php

     Parallel version (MPI & OpenMP), running on      64 processor cores
     Number of MPI processes:                 8
     Threads/MPI process:                     8
     K-points division:     npool     =       8

     Current dimensions of program PWSCF are:
     Max number of different atomic species (ntypx) = 10
     Max number of k-points (npk) =  40000
     Max angular momentum in pseudopotentials (lmaxx) =  3
     Reading input from YBCO_STO.pw.in

     Subspace diagonalization in iterative solution of the eigenvalue problem:
     a serial algorithm will be used

     Message from routine setup:
     Dynamics, you should have no symmetries
 
     G-vector sticks info
     --------------------
     sticks:   dense  smooth     PW     G-vecs:    dense   smooth      PW
     Sum         885     709    213               128253    91639   14365
 

     Title: 
     YBCO_STO_PBE_from_GBRV                                                     


     bravais-lattice index     =            8
     lattice parameter (alat)  =       7.4531  a.u.
     unit-cell volume          =    2684.5675 (a.u.)^3
     number of atoms/cell      =           21
     number of atomic types    =            6
     number of electrons       =       194.00
     number of Kohn-Sham states=          105
     kinetic-energy cutoff     =      40.0000  Ry
     charge density cutoff     =     200.0000  Ry
     convergence threshold     =      2.0E-05
     mixing beta               =       0.1500
     number of iterations used =            8  local-TF  mixing
     Exchange-correlation      = SLA  PW   PBE  PBE ( 1 4 3 4 0)
     EXX-fraction              =        0.00
     nstep                     =          100


     celldm(1)=   7.453080  celldm(2)=   1.000000  celldm(3)=   6.484358
     celldm(4)=   0.000000  celldm(5)=   0.000000  celldm(6)=   0.000000

     crystal axes: (cart. coord. in units of alat)
               a(1) = (   1.000000   0.000000   0.000000 )  
               a(2) = (   0.000000   1.000000   0.000000 )  
               a(3) = (   0.000000   0.000000   6.484358 )  

     reciprocal axes: (cart. coord. in units 2 pi/alat)
               b(1) = (  1.000000  0.000000  0.000000 )  
               b(2) = (  0.000000  1.000000  0.000000 )  
               b(3) = (  0.000000  0.000000  0.154217 )  


     PseudoPot. # 1 for Ba read from file:
     ../pbe/ba_pbe_v1.uspp.F.UPF
     MD5 check sum: 3380f63c22b3abf76d74aa74136bb909
     Pseudo is Ultrasoft + core correction, Zval = 10.0
     Generated by new atomic code, or converted to UPF format
     Using radial grid of  907 points,  7 beta functions with: 
                l(1) =   0
                l(2) =   0
                l(3) =   1
                l(4) =   1
                l(5) =   2
                l(6) =   2
                l(7) =   3
     Q(r) pseudized with  6 coefficients,  rinner =    1.700   1.700   1.700
                                                       1.700   1.700   1.700
                                                       1.700

     PseudoPot. # 2 for Y  read from file:
     ../pbe/y_pbe_v1.uspp.F.UPF
     MD5 check sum: 2cf71db95cafeb975fc457bd7f14888e
     Pseudo is Ultrasoft + core correction, Zval = 11.0
     Generated by new atomic code, or converted to UPF format
     Using radial grid of  885 points,  6 beta functions with: 
                l(1) =   0
                l(2) =   0
                l(3) =   1
                l(4) =   1
                l(5) =   2
                l(6) =   2
     Q(r) pseudized with  6 coefficients,  rinner =    1.200   1.200   1.200
                                                       1.200   1.200

     PseudoPot. # 3 for Cu read from file:
     ../pbe/cu_pbe_v1.uspp.F.UPF
     MD5 check sum: dd7df6c276b3c1af358798b42dbd4e5a
     Pseudo is Ultrasoft + core correction, Zval = 19.0
     Generated by new atomic code, or converted to UPF format
     Using radial grid of  867 points,  6 beta functions with: 
                l(1) =   0
                l(2) =   0
                l(3) =   1
                l(4) =   1
                l(5) =   2
                l(6) =   2
     Q(r) pseudized with  8 coefficients,  rinner =    1.100   1.100   1.100
                                                       1.100   1.100

     PseudoPot. # 4 for O  read from file:
     ../pbe/o_pbe_v1.01.uspp.F.UPF
     MD5 check sum: 2bcb18d16ea4b960afae9ec6d52f22d2
     Pseudo is Ultrasoft + core correction, Zval =  6.0
     Generated by new atomic code, or converted to UPF format
     Using radial grid of  737 points,  5 beta functions with: 
                l(1) =   0
                l(2) =   0
                l(3) =   1
                l(4) =   1
                l(5) =   2
     Q(r) pseudized with  8 coefficients,  rinner =    0.900   0.900   0.900
                                                       0.900   0.900

     PseudoPot. # 5 for Sr read from file:
     ../pbe/sr_pbe_v1.uspp.F.UPF
     MD5 check sum: 6b418c05fbe9db5448babca5e47b7a5b
     Pseudo is Ultrasoft + core correction, Zval = 10.0
     Generated by new atomic code, or converted to UPF format
     Using radial grid of  883 points,  6 beta functions with: 
                l(1) =   0
                l(2) =   0
                l(3) =   1
                l(4) =   1
                l(5) =   2
                l(6) =   2
     Q(r) pseudized with  6 coefficients,  rinner =    1.400   1.400   1.400
                                                       1.400   1.400

     PseudoPot. # 6 for Ti read from file:
     ../pbe/ti_pbe_v1.uspp.F.UPF
     MD5 check sum: bcc8f6961b3b91f0cac3ca967d22d0fb
     Pseudo is Ultrasoft + core correction, Zval = 12.0
     Generated by new atomic code, or converted to UPF format
     Using radial grid of  851 points,  6 beta functions with: 
                l(1) =   0
                l(2) =   0
                l(3) =   1
                l(4) =   1
                l(5) =   2
                l(6) =   2
     Q(r) pseudized with  6 coefficients,  rinner =    1.000   1.000   1.000
                                                       1.000   1.000

     atomic species   valence    mass     pseudopotential
        Ba            10.00   137.32700     Ba( 1.00)
        Y             11.00    88.90585     Y ( 1.00)
        Cu            19.00    63.54600     Cu( 1.00)
        O              6.00    15.99940     O ( 1.00)
        Sr            10.00    87.62000     Sr( 1.00)
        Ti            12.00    47.88000     Ti( 1.00)

      cell mass =  70.63890 AMU 

      4 Sym. Ops. (no inversion) found



   Cartesian axes

     site n.     atom                  positions (alat units)
         1           Ba  tau(   1) = (   0.5000000   0.5000000   1.5396411  )
         2           Ba  tau(   2) = (   0.5000000   0.5000000   3.4092178  )
         3           Y   tau(   3) = (   0.5000000   0.5000000   2.4744293  )
         4           Cu  tau(   4) = (   0.0000000   0.0000000   3.9488613  )
         5           Cu  tau(   5) = (   0.0000000   0.0000000   2.0447808  )
         6           Cu  tau(   6) = (   0.0000000   0.0000000   2.9040781  )
         7           O   tau(   7) = (   0.0000000   0.0000000   1.4694585  )
         8           O   tau(   8) = (   0.0000000   0.0000000   3.4794008  )
         9           O   tau(   9) = (   0.0000000   0.0000000   0.5000000  )
        10           O   tau(  10) = (   0.5000000   0.0000000   2.1099506  )
        11           O   tau(  11) = (   0.5000000   0.0000000   2.8389085  )
        12           O   tau(  12) = (   0.5000000   0.0000000   0.0000000  )
        13           O   tau(  13) = (   0.5000000   0.0000000   1.0000001  )
        14           O   tau(  14) = (   0.0000000   0.5000000   0.0000000  )
        15           O   tau(  15) = (   0.0000000   0.5000000   1.0000001  )
        16           O   tau(  16) = (   0.0000000   0.5000000   2.1126047  )
        17           O   tau(  17) = (   0.0000000   0.5000000   2.8362545  )
        18           O   tau(  18) = (   0.0000000   0.5000000   3.9488613  )
        19           Sr  tau(  19) = (   0.5000000   0.5000000   0.5000000  )
        20           Ti  tau(  20) = (   0.0000000   0.0000000   0.0000000  )
        21           Ti  tau(  21) = (   0.0000000   0.0000000   1.0000001  )

     number of k points=     9  gaussian smearing, width (Ry)=  0.0100
                       cart. coord. in units 2pi/alat
        k(    1) = (   0.0833333   0.0833333   0.0385543), wk =   0.2222222
        k(    2) = (   0.0833333   0.2500000   0.0385543), wk =   0.2222222
        k(    3) = (   0.0833333   0.4166667   0.0385543), wk =   0.2222222
        k(    4) = (   0.2500000   0.2500000   0.0385543), wk =   0.2222222
        k(    5) = (   0.2500000   0.4166667   0.0385543), wk =   0.2222222
        k(    6) = (   0.4166667   0.4166667   0.0385543), wk =   0.2222222
        k(    7) = (   0.2500000   0.0833333  -0.0385543), wk =   0.2222222
        k(    8) = (   0.4166667   0.0833333  -0.0385543), wk =   0.2222222
        k(    9) = (   0.4166667   0.2500000  -0.0385543), wk =   0.2222222

     Dense  grid:   128253 G-vectors     FFT dimensions: (  36,  36, 225)

     Smooth grid:    91639 G-vectors     FFT dimensions: (  32,  32, 200)

     Largest allocated arrays     est. size (Mb)     dimensions
        Kohn-Sham Wavefunctions        18.46 Mb     (  11523,  105)
        NL pseudopotentials            58.37 Mb     (  11523,  332)
        Each V/rho on FFT grid          4.45 Mb     ( 291600)
        Each G-vector array             0.98 Mb     ( 128253)
        G-vector shells                 0.98 Mb     ( 128253)
     Largest temporary arrays     est. size (Mb)     dimensions
        Auxiliary wavefunctions        73.85 Mb     (  11523,  420)
        Each subspace H/S matrix        2.69 Mb     ( 420, 420)
        Each <psi_i|beta_j> matrix      0.53 Mb     (    332,  105)
        Arrays for rho mixing          35.60 Mb     ( 291600,   8)
     writing wfc files to a dedicated directory

     Check: negative/imaginary core charge=   -0.000022    0.000000

     Initial potential from superposition of free atoms
     Check: negative starting charge=   -0.318837

     starting charge  188.93177, renormalised to  194.00000

     negative rho (up, down):  0.327E+00 0.000E+00
     Starting wfc are  159 randomized atomic wfcs

     total cpu time spent up to now is      119.0 secs

     per-process dynamical memory:   245.0 Mb

     Self-consistent Calculation

     iteration #  1     ecut=    40.00 Ry     beta=0.15
     Davidson diagonalization with overlap
     ethr =  1.00E-02,  avg # of iterations =  5.3

     negative rho (up, down):  0.321E+00 0.000E+00

     total cpu time spent up to now is      272.8 secs

     total energy              =   -2126.18372928 Ry
     Harris-Foulkes estimate   =   -2137.57818225 Ry
     estimated scf accuracy    <     652.64027226 Ry

     iteration #  2     ecut=    40.00 Ry     beta=0.15
     Davidson diagonalization with overlap
     ethr =  1.00E-02,  avg # of iterations =  4.8

     negative rho (up, down):  0.319E+00 0.000E+00

     total cpu time spent up to now is      439.6 secs

     total energy              =   -2127.99533704 Ry
     Harris-Foulkes estimate   =   -2131.19262208 Ry
     estimated scf accuracy    <     210.28335033 Ry

     iteration #  3     ecut=    40.00 Ry     beta=0.15
     Davidson diagonalization with overlap
     ethr =  1.00E-02,  avg # of iterations =  1.1

     negative rho (up, down):  0.316E+00 0.000E+00

     total cpu time spent up to now is      593.0 secs

     total energy              =   -2129.31731426 Ry
     Harris-Foulkes estimate   =   -2129.72605484 Ry
     estimated scf accuracy    <      12.54435462 Ry

     iteration #  4     ecut=    40.00 Ry     beta=0.15
     Davidson diagonalization with overlap
     ethr =  6.47E-03,  avg # of iterations =  1.8

     negative rho (up, down):  0.311E+00 0.000E+00

     total cpu time spent up to now is      737.1 secs

     total energy              =   -2129.18792500 Ry
     Harris-Foulkes estimate   =   -2129.68580998 Ry
     estimated scf accuracy    <       7.74744790 Ry

     iteration #  5     ecut=    40.00 Ry     beta=0.15
     Davidson diagonalization with overlap
     ethr =  3.99E-03,  avg # of iterations =  1.0

     negative rho (up, down):  0.309E+00 0.000E+00

     total cpu time spent up to now is      873.7 secs

     total energy              =   -2128.46947388 Ry
     Harris-Foulkes estimate   =   -2129.25092856 Ry
     estimated scf accuracy    <       5.26818685 Ry

     iteration #  6     ecut=    40.00 Ry     beta=0.15
     Davidson diagonalization with overlap
     ethr =  2.72E-03,  avg # of iterations =  3.8

     negative rho (up, down):  0.308E+00 0.000E+00

     total cpu time spent up to now is     1010.4 secs

     total energy              =   -2128.71318187 Ry
     Harris-Foulkes estimate   =   -2129.15739623 Ry
     estimated scf accuracy    <      78.10772994 Ry

     iteration #  7     ecut=    40.00 Ry     beta=0.15
     Davidson diagonalization with overlap
     ethr =  2.72E-03,  avg # of iterations =  1.1

     negative rho (up, down):  0.309E+00 0.000E+00

     total cpu time spent up to now is     1147.6 secs

     total energy              =   -2128.36916188 Ry
     Harris-Foulkes estimate   =   -2128.86061979 Ry
     estimated scf accuracy    <      18.92330642 Ry

     iteration #  8     ecut=    40.00 Ry     beta=0.15
     Davidson diagonalization with overlap
     ethr =  2.72E-03,  avg # of iterations =  1.0

     negative rho (up, down):  0.312E+00 0.000E+00

     total cpu time spent up to now is     1280.9 secs

     total energy              =   -2128.62803264 Ry
     Harris-Foulkes estimate   =   -2128.68221355 Ry
     estimated scf accuracy    <       1.27359157 Ry

     iteration #  9     ecut=    40.00 Ry     beta=0.15
     Davidson diagonalization with overlap
     ethr =  6.56E-04,  avg # of iterations =  5.9

     negative rho (up, down):  0.312E+00 0.000E+00

     total cpu time spent up to now is     1420.4 secs

     total energy              =   -2128.65993604 Ry
     Harris-Foulkes estimate   =   -2128.65664927 Ry
     estimated scf accuracy    <       1.81760399 Ry

     iteration # 10     ecut=    40.00 Ry     beta=0.15
     Davidson diagonalization with overlap
     ethr =  6.56E-04,  avg # of iterations =  1.0

     negative rho (up, down):  0.312E+00 0.000E+00

     total cpu time spent up to now is     1568.9 secs

          k = 0.0833 0.0833 0.0386     band energies (ev):

  -107.5477-107.1149-106.5499 -65.0609 -65.0561 -64.6392 -64.6090 -64.5800
   -64.1940 -63.9685 -63.9563 -63.8321 -51.5993 -50.6766 -32.8129 -29.5005
   -27.8986 -27.8982 -27.8426 -27.0973 -27.0967 -27.0265 -19.2414 -18.4286
   -13.7678 -13.0552 -13.0403 -13.0104 -12.5094 -12.0955 -11.9015 -11.7860
   -11.4861 -11.3562 -11.0771 -10.9462 -10.8640 -10.8094 -10.7625 -10.7446
   -10.3280 -10.1029  -4.4918  -4.3421  -4.2116  -3.7978  -3.6469  -3.5271
     0.7214   1.1916   1.2309   1.2998   1.4017   1.5055   1.5062   1.6465
     1.7682   1.7860   2.0461   2.1990   2.3473   2.4049   2.5616   2.6170
     2.6486   2.6895   2.7415   2.8671   2.9015   3.0319   3.0472   3.1113
     3.1617   3.2101   3.2618   3.2995   3.3423   3.4815   3.5449   3.5547
     3.5954   3.6644   3.9948   4.0308   4.0630   4.1560   4.1917   4.3701
     4.4270   4.4658   4.5844   4.6333   4.6900   4.8478   4.8873   4.9975
     5.3226   5.5116   5.7543   7.0778   7.3005   7.3885   7.4875   7.5143
     7.9063

          k = 0.0833 0.2500 0.0386     band energies (ev):

  -107.5477-107.1149-106.5499 -65.0610 -65.0561 -64.6392 -64.6090 -64.5800
   -64.1940 -63.9685 -63.9563 -63.8321 -51.5990 -50.6762 -32.8079 -29.4928
   -27.9222 -27.8972 -27.8421 -27.1306 -27.0954 -27.0257 -19.2001 -18.3804
   -13.6172 -13.4406 -13.0151 -12.9803 -12.5545 -12.0560 -11.6771 -11.5660
   -11.4725 -11.1898 -11.1554 -10.9293 -10.8698 -10.7031 -10.6916 -10.6771
   -10.3847 -10.1678  -4.4689  -4.4185  -4.1376  -3.8360  -3.6938  -3.4516
     0.5554   0.7014   0.7032   0.8628   1.2340   1.2865   1.4107   1.4516
     1.5392   1.7197   1.7928   1.8749   1.9252   2.0561   2.2166   2.3443
     2.4032   2.4794   2.5245   2.5859   2.6238   2.7925   2.8249   2.8863
     2.9508   3.1118   3.1846   3.2202   3.2742   3.3520   3.4434   3.4656
     3.5791   3.6093   3.7884   3.9363   4.0878   4.1672   4.2383   4.3876
     4.4948   4.5710   4.7645   4.8125   4.8908   4.9959   5.0634   5.2539
     5.3790   5.4354   6.3240   7.4518   7.7202   8.0869   8.1354   8.3761
     8.5998

          k = 0.0833 0.4167 0.0386     band energies (ev):

  -107.5477-107.1149-106.5499 -65.0610 -65.0561 -64.6392 -64.6090 -64.5800
   -64.1940 -63.9685 -63.9563 -63.8321 -51.5987 -50.6758 -32.8029 -29.4852
   -27.9457 -27.8961 -27.8416 -27.1635 -27.0940 -27.0250 -19.1581 -18.3309
   -13.7278 -13.4292 -13.1011 -13.0035 -12.3148 -12.0757 -11.5456 -11.4344
   -11.3984 -11.3483 -11.2283 -10.8914 -10.7750 -10.6585 -10.5691 -10.4983
   -10.4060 -10.2046  -4.4498  -4.4296  -4.1169  -3.8393  -3.7027  -3.4412
     0.0638   0.2441   0.3826   0.4310   0.7868   0.8028   1.1198   1.3358
     1.3962   1.5800   1.6007   1.6531   1.6675   1.8469   2.0157   2.0764
     2.1505   2.2772   2.4386   2.5266   2.5600   2.6043   2.6899   2.7223
     2.8112   2.8769   2.8787   3.2080   3.2783   3.3042   3.3656   3.4354
     3.5353   3.7822   3.9195   3.9555   4.0691   4.2033   4.2414   4.3430
     4.7075   4.7663   4.8001   4.8309   4.8828   5.0168   5.0794   5.3827
     5.6678   5.7654   6.3848   7.4932   8.2744   8.3706   8.7789   8.7968
     9.4227

          k = 0.2500 0.2500 0.0386     band energies (ev):

  -107.5477-107.1149-106.5499 -65.0610 -65.0561 -64.6392 -64.6090 -64.5800
   -64.1940 -63.9685 -63.9563 -63.8322 -51.5987 -50.6758 -32.8029 -29.4850
   -27.9215 -27.9210 -27.8412 -27.1296 -27.1289 -27.0246 -19.1621 -18.3378
   -13.4898 -13.4301 -13.3753 -12.8693 -12.3828 -12.1460 -11.5962 -11.4826
   -11.2254 -11.0784 -11.0744 -10.9812 -10.8447 -10.7179 -10.7137 -10.6638
   -10.3917 -10.1385  -4.6410  -4.4960  -4.2159  -3.9575  -3.8532  -3.5313
     0.2977   0.5510   0.6737   0.7154   0.7642   1.0807   1.1086   1.1471
     1.5029   1.5325   1.5837   1.5909   1.6923   1.7331   1.8968   2.0065
     2.0069   2.1579   2.3431   2.3909   2.5028   2.5693   2.5845   2.7295
     2.7790   3.0487   3.0727   3.2260   3.4862   3.4901   3.5185   3.6204
     3.7628   3.7790   3.9521   4.0210   4.3038   4.3394   4.4387   4.5579
     4.5830   4.6461   4.7297   4.8954   4.9763   5.0899   5.2889   5.4266
     5.7127   6.0950   6.3456   7.8445   8.2679   8.2834   8.5040   8.9420
     9.6391

          k = 0.2500 0.4167 0.0386     band energies (ev):

  -107.5477-107.1149-106.5499 -65.0610 -65.0561 -64.6392 -64.6090 -64.5800
   -64.1940 -63.9685 -63.9563 -63.8322 -51.5985 -50.6754 -32.7980 -29.4771
   -27.9451 -27.9203 -27.8403 -27.1626 -27.1279 -27.0235 -19.1246 -18.2942
   -13.6979 -13.3955 -13.2794 -12.8645 -12.1499 -12.0763 -11.6736 -11.3821
   -11.3288 -11.1279 -11.0330 -10.8317 -10.7944 -10.6573 -10.5410 -10.5349
   -10.3908 -10.1925  -4.7168  -4.4896  -4.4272  -4.0163  -3.8844  -3.7918
    -0.1985   0.2168   0.2324   0.6150   0.7189   0.7920   0.8477   0.8838
     1.0262   1.0315   1.1215   1.2559   1.5348   1.5902   1.6644   1.7760
     2.0235   2.0354   2.1218   2.2040   2.3081   2.3760   2.4940   2.5864
     2.7007   2.8328   3.0525   3.2766   3.5302   3.6097   3.7004   3.7577
     3.7812   3.9376   4.1159   4.3323   4.3952   4.4117   4.5869   4.7084
     4.7794   4.8185   4.9453   4.9477   5.0807   5.2511   5.6176   5.7411
     6.0579   6.3472   6.4597   8.0281   8.5626   8.7048   8.8080   8.9961
     9.0271

          k = 0.4167 0.4167 0.0386     band energies (ev):

  -107.5478-107.1149-106.5499 -65.0609 -65.0561 -64.6392 -64.6090 -64.5800
   -64.1940 -63.9685 -63.9563 -63.8322 -51.5982 -50.6750 -32.7930 -29.4691
   -27.9445 -27.9442 -27.8390 -27.1618 -27.1612 -27.0221 -19.0905 -18.2569
   -13.6803 -13.6634 -13.1071 -12.5340 -12.2231 -12.0161 -11.6093 -11.3962
   -11.2508 -11.2300 -11.2085 -10.6252 -10.5948 -10.5293 -10.5198 -10.4784
   -10.3957 -10.1774  -4.9384  -4.7512  -4.5352  -4.2427  -4.1511  -3.9408
    -0.6489  -0.1403   0.0653   0.2973   0.4400   0.5529   0.7564   0.7729
     0.8851   0.8929   1.0324   1.0647   1.0654   1.2345   1.3966   1.6370
     1.6668   1.9953   2.0036   2.1003   2.1902   2.4088   2.4285   2.4606
     2.5384   2.7647   3.1255   3.4946   3.6658   3.7285   3.9786   4.0810
     4.1608   4.2510   4.2809   4.4906   4.5611   4.6325   4.8152   4.8575
     4.9767   5.0913   5.2116   5.2177   5.2378   5.4841   5.5981   5.6883
     6.3862   6.8024   7.1636   8.5740   8.8396   8.9719   9.1487   9.3002
     9.3911

          k = 0.2500 0.0833-0.0386     band energies (ev):

  -107.5477-107.1149-106.5499 -65.0609 -65.0562 -64.6392 -64.6090 -64.5800
   -64.1940 -63.9685 -63.9563 -63.8322 -51.5990 -50.6762 -32.8079 -29.4928
   -27.9220 -27.8975 -27.8421 -27.1301 -27.0959 -27.0257 -19.1991 -18.3805
   -13.6175 -13.4454 -13.0153 -12.9800 -12.5545 -12.0560 -11.6774 -11.5714
   -11.4724 -11.1897 -11.1379 -10.9282 -10.8820 -10.7936 -10.7140 -10.6930
   -10.3852 -10.0995  -4.5472  -4.3528  -4.1579  -3.8360  -3.6934  -3.4515
     0.5561   0.7016   0.7028   0.8337   1.2336   1.2756   1.4110   1.5207
     1.6420   1.7555   1.8747   1.9180   2.0521   2.2152   2.3486   2.3954
     2.4755   2.5046   2.5815   2.6005   2.6879   2.8061   2.8929   3.0504
     3.1213   3.2020   3.2315   3.2626   3.3425   3.4371   3.4538   3.4943
     3.6044   3.6709   3.7923   3.9257   4.0633   4.1144   4.1809   4.3517
     4.4314   4.5073   4.5475   4.6063   4.7688   4.8435   5.0354   5.0610
     5.3150   5.4190   5.8532   7.5064   7.7368   8.0908   8.1367   8.3620
     9.0659

          k = 0.4167 0.0833-0.0386     band energies (ev):

  -107.5477-107.1149-106.5499 -65.0609 -65.0562 -64.6392 -64.6090 -64.5800
   -64.1940 -63.9685 -63.9563 -63.8322 -51.5987 -50.6758 -32.8028 -29.4852
   -27.9454 -27.8964 -27.8416 -27.1630 -27.0946 -27.0250 -19.1558 -18.3311
   -13.7376 -13.4276 -13.1007 -13.0037 -12.3144 -12.0759 -11.5460 -11.4223
   -11.3919 -11.3552 -11.2285 -10.9526 -10.8792 -10.7102 -10.6037 -10.4997
   -10.4059 -10.0889  -4.5640  -4.3224  -4.1788  -3.8375  -3.7039  -3.4409
     0.0570   0.2434   0.3479   0.4305   0.7868   1.1188   1.3359   1.3833
     1.5690   1.5985   1.6240   1.6555   1.8532   2.0309   2.1020   2.1564
     2.3274   2.4431   2.4669   2.5277   2.5711   2.6900   2.7312   2.8773
     2.9834   3.1215   3.2082   3.2793   3.2944   3.3532   3.4045   3.4411
     3.7396   3.8173   3.9092   3.9559   4.0618   4.1015   4.2110   4.2657
     4.3016   4.6270   4.7348   4.7864   4.8118   4.8803   4.9610   5.0268
     5.2078   5.3673   5.9299   7.4899   8.2797   8.3609   8.7411   8.7850
     8.8541

          k = 0.4167 0.2500-0.0386     band energies (ev):

  -107.5477-107.1149-106.5499 -65.0609 -65.0562 -64.6392 -64.6090 -64.5800
   -64.1940 -63.9685 -63.9563 -63.8322 -51.5985 -50.6754 -32.7979 -29.4771
   -27.9448 -27.9206 -27.8403 -27.1621 -27.1284 -27.0235 -19.1234 -18.2943
   -13.7078 -13.3879 -13.2802 -12.8642 -12.1505 -12.0758 -11.6739 -11.3812
   -11.3078 -11.1282 -11.0345 -10.8592 -10.8227 -10.7698 -10.5425 -10.5349
   -10.3896 -10.1080  -4.6797  -4.5289  -4.4645  -4.0174  -3.8830  -3.7917
    -0.2055   0.1932   0.2316   0.6146   0.7149   0.7917   0.8835   1.0267
     1.0514   1.1205   1.2536   1.5352   1.5823   1.5866   1.6793   1.7733
     2.0213   2.0350   2.1200   2.2050   2.3212   2.3924   2.5884   2.6875
     2.7531   2.9940   3.0637   3.2615   3.5308   3.6203   3.7164   3.7821
     3.8378   4.0040   4.1249   4.3461   4.3900   4.4156   4.5694   4.7039
     4.7163   4.8004   4.8168   4.9138   5.0799   5.1537   5.1880   5.3158
     6.0689   6.3378   6.4794   8.0296   8.5689   8.7067   8.8573   9.0153
     9.5129

     the Fermi energy is     5.7272 ev

     total energy              =   -2128.60282994 Ry
     Harris-Foulkes estimate   =   -2128.66344452 Ry
     estimated scf accuracy    <       1.80955406 Ry

     iteration # 11     ecut=    40.00 Ry     beta=0.15
     Davidson diagonalization with overlap
     ethr =  6.56E-04,  avg # of iterations =  1.0

     negative rho (up, down):  0.321E+00 0.000E+00

     total cpu time spent up to now is     1712.6 secs

     total energy              =   -2128.48744893 Ry
     Harris-Foulkes estimate   =   -2128.62617249 Ry
     estimated scf accuracy    <       0.95239509 Ry

     iteration # 12     ecut=    40.00 Ry     beta=0.15
     Davidson diagonalization with overlap
     ethr =  4.91E-04,  avg # of iterations =  3.8

     negative rho (up, down):  0.324E+00 0.000E+00

     total cpu time spent up to now is     1851.1 secs

     total energy              =   -2128.68714759 Ry
     Harris-Foulkes estimate   =   -2128.56239287 Ry
     estimated scf accuracy    <       6.44102699 Ry

     iteration # 13     ecut=    40.00 Ry     beta=0.15
     Davidson diagonalization with overlap
     ethr =  4.91E-04,  avg # of iterations =  3.4

     negative rho (up, down):  0.324E+00 0.000E+00

     total cpu time spent up to now is     1993.0 secs

     total energy              =   -2128.75145621 Ry
     Harris-Foulkes estimate   =   -2128.82706352 Ry
     estimated scf accuracy    <      44.80726764 Ry

     iteration # 14     ecut=    40.00 Ry     beta=0.15
     Davidson diagonalization with overlap
     ethr =  4.91E-04,  avg # of iterations =  1.0

     negative rho (up, down):  0.323E+00 0.000E+00

     total cpu time spent up to now is     2128.8 secs

     total energy              =   -2128.51269278 Ry
     Harris-Foulkes estimate   =   -2128.76374556 Ry
     estimated scf accuracy    <      33.93561723 Ry

     iteration # 15     ecut=    40.00 Ry     beta=0.15
     Davidson diagonalization with overlap
     ethr =  4.91E-04,  avg # of iterations =  1.0

     negative rho (up, down):  0.322E+00 0.000E+00

     total cpu time spent up to now is     2262.0 secs

     total energy              =   -2128.45074667 Ry
     Harris-Foulkes estimate   =   -2128.58841406 Ry
     estimated scf accuracy    <       8.64200336 Ry

     iteration # 16     ecut=    40.00 Ry     beta=0.15
     Davidson diagonalization with overlap
     ethr =  4.91E-04,  avg # of iterations =  1.0

     negative rho (up, down):  0.323E+00 0.000E+00

     total cpu time spent up to now is     2402.5 secs

     total energy              =   -2128.48083952 Ry
     Harris-Foulkes estimate   =   -2128.50642977 Ry
     estimated scf accuracy    <       0.82770409 Ry

     iteration # 17     ecut=    40.00 Ry     beta=0.15
     Davidson diagonalization with overlap
     ethr =  4.27E-04,  avg # of iterations =  1.0

     negative rho (up, down):  0.324E+00 0.000E+00

     total cpu time spent up to now is     2543.2 secs

     total energy              =   -2128.47162089 Ry
     Harris-Foulkes estimate   =   -2128.48648726 Ry
     estimated scf accuracy    <       0.50555071 Ry

     iteration # 18     ecut=    40.00 Ry     beta=0.15
     Davidson diagonalization with overlap
     ethr =  2.61E-04,  avg # of iterations =  1.6

     negative rho (up, down):  0.324E+00 0.000E+00

     total cpu time spent up to now is     2687.4 secs

     total energy              =   -2128.46628094 Ry
     Harris-Foulkes estimate   =   -2128.47503653 Ry
     estimated scf accuracy    <       0.36606117 Ry

     iteration # 19     ecut=    40.00 Ry     beta=0.15
     Davidson diagonalization with overlap
     ethr =  1.89E-04,  avg # of iterations =  2.0

     negative rho (up, down):  0.325E+00 0.000E+00

     total cpu time spent up to now is     2832.1 secs

     total energy              =   -2128.45867201 Ry
     Harris-Foulkes estimate   =   -2128.46968166 Ry
     estimated scf accuracy    <       0.32770369 Ry

     iteration # 20     ecut=    40.00 Ry     beta=0.15
     Davidson diagonalization with overlap
     ethr =  1.69E-04,  avg # of iterations =  2.0

     negative rho (up, down):  0.329E+00 0.000E+00

     total cpu time spent up to now is     2972.0 secs

          k = 0.0833 0.0833 0.0386     band energies (ev):

  -106.7643-106.6809-106.6111 -64.2757 -64.2692 -64.2568 -64.2433 -64.2336
   -64.1916 -63.9562 -63.7358 -63.4875 -52.9911 -50.9488 -35.5016 -29.3188
   -29.1097 -29.1069 -29.0049 -27.2960 -27.2244 -27.2239 -19.8996 -19.7300
   -15.8478 -15.5128 -15.5050 -12.6601 -12.3501 -12.2213 -11.7567 -11.6943
   -11.5133 -11.2252 -11.1763 -11.1186 -11.0127 -10.8603 -10.8595 -10.5425
   -10.5213 -10.3368  -5.1038  -4.9647  -4.9336  -4.8250  -4.8240  -4.7107
     0.7682   0.9808   1.0624   1.0818   1.2562   1.3053   1.3844   1.5536
     1.7206   2.0446   2.2388   2.2902   2.3057   2.3690   2.4660   2.6984
     2.7075   2.7876   2.8323   2.8586   2.9064   3.1146   3.1379   3.2803
     3.3503   3.3790   3.4172   3.4640   3.4835   3.5515   3.5738   3.5945
     3.7005   3.8630   3.8725   3.9174   3.9473   4.0192   4.0632   4.1935
     4.2277   4.2711   4.4196   4.5596   4.6014   4.7637   4.9663   5.0047
     5.0814   5.1710   5.4240   6.2296   6.2342   6.2995   7.4050   7.6379
     7.9939

          k = 0.0833 0.2500 0.0386     band energies (ev):

  -106.7644-106.6809-106.6111 -64.2757 -64.2692 -64.2568 -64.2433 -64.2335
   -64.1916 -63.9562 -63.7358 -63.4875 -52.9909 -50.9485 -35.4974 -29.3149
   -29.1359 -29.1070 -28.9949 -27.2953 -27.2509 -27.2228 -19.8597 -19.6883
   -15.7745 -15.7106 -15.4993 -12.6574 -12.2672 -11.9525 -11.7322 -11.5734
   -11.5481 -11.2129 -11.1465 -11.1302 -11.0789 -10.8436 -10.7018 -10.5625
   -10.4995 -10.3649  -5.0848  -5.0373  -4.9729  -4.8535  -4.7517  -4.6378
     0.4959   0.6521   0.7831   0.8892   1.1523   1.1984   1.2584   1.3002
     1.4228   1.5068   1.6349   1.9362   2.1337   2.1970   2.2343   2.2927
     2.3235   2.3693   2.5551   2.6111   2.7567   2.8144   2.9361   2.9955
     3.0309   3.1362   3.2075   3.3141   3.3220   3.4389   3.5212   3.5767
     3.6612   3.7120   3.7409   3.8846   4.0340   4.1111   4.1393   4.3625
     4.4280   4.4552   4.5977   4.6628   4.6939   4.8565   5.0367   5.1211
     5.1932   5.4648   5.9997   6.2759   6.8152   6.9599   7.5518   8.6053
     8.9140

          k = 0.0833 0.4167 0.0386     band energies (ev):

  -106.7644-106.6809-106.6111 -64.2757 -64.2692 -64.2568 -64.2433 -64.2335
   -64.1916 -63.9562 -63.7358 -63.4875 -52.9907 -50.9482 -35.4933 -29.3109
   -29.1613 -29.1056 -28.9870 -27.2946 -27.2771 -27.2216 -19.8190 -19.6458
   -15.8880 -15.6966 -15.4923 -12.7849 -12.0018 -11.7323 -11.6696 -11.6272
   -11.4262 -11.2837 -11.1773 -11.0916 -11.0873 -10.8331 -10.7186 -10.5726
   -10.3501 -10.3228  -5.0694  -5.0500  -4.9796  -4.8274  -4.7289  -4.6451
     0.0439   0.2351   0.2607   0.5657   0.6511   0.7913   1.2366   1.2605
     1.3520   1.4302   1.4802   1.5619   1.8413   1.8637   1.9213   1.9898
     2.2030   2.2593   2.3681   2.4722   2.5994   2.6657   2.6964   2.7797
     2.7954   2.9411   2.9700   3.2065   3.2660   3.4221   3.4708   3.5460
     3.5648   3.6325   3.8114   3.8580   4.1392   4.2350   4.2522   4.2868
     4.4682   4.5707   4.6934   4.8032   4.9593   5.0092   5.1281   5.3201
     5.5020   5.5129   6.1171   6.3007   7.4088   7.5906   7.6181   8.6167
     9.4964

          k = 0.2500 0.2500 0.0386     band energies (ev):

  -106.7644-106.6809-106.6111 -64.2757 -64.2692 -64.2568 -64.2433 -64.2335
   -64.1916 -63.9562 -63.7359 -63.4875 -52.9907 -50.9482 -35.4933 -29.3123
   -29.1356 -29.1276 -28.9896 -27.2943 -27.2500 -27.2494 -19.8231 -19.6508
   -15.7084 -15.7040 -15.6882 -12.5758 -12.0714 -11.7725 -11.6974 -11.5039
   -11.4554 -11.2225 -11.1862 -11.1697 -11.1282 -10.7203 -10.6096 -10.5972
   -10.5345 -10.3777  -5.2496  -5.1119  -5.1004  -4.9941  -4.8315  -4.6931
     0.0522   0.4506   0.7728   0.8047   0.9458   0.9840   1.1100   1.2369
     1.3101   1.3975   1.5391   1.6158   1.6285   1.7016   1.8116   1.9264
     2.1117   2.2258   2.2650   2.3165   2.4973   2.6333   2.6534   2.7677
     2.8918   2.9802   2.9967   3.3290   3.5229   3.5517   3.6148   3.7294
     3.7977   3.9242   3.9971   4.1127   4.2173   4.3187   4.3314   4.4205
     4.4274   4.4624   4.4979   4.7788   4.8485   4.9813   5.0673   5.1586
     5.9660   6.0023   6.1492   6.7179   6.9594   7.3202   7.7556   8.8797
     9.1024

          k = 0.2500 0.4167 0.0386     band energies (ev):

  -106.7644-106.6809-106.6111 -64.2757 -64.2692 -64.2568 -64.2433 -64.2335
   -64.1916 -63.9562 -63.7359 -63.4875 -52.9904 -50.9479 -35.4891 -29.3097
   -29.1550 -29.1275 -28.9849 -27.2932 -27.2763 -27.2485 -19.7866 -19.6127
   -15.8735 -15.6859 -15.6301 -12.5680 -11.8122 -11.7382 -11.5651 -11.3884
   -11.3590 -11.2433 -11.2342 -11.1704 -11.0513 -10.7043 -10.6898 -10.5632
   -10.4515 -10.3632  -5.3289  -5.1389  -5.1075  -5.0317  -5.0263  -4.9352
    -0.4239   0.0479   0.2428   0.6084   0.7769   0.8703   0.8962   0.9829
     1.0846   1.1277   1.2266   1.2464   1.3259   1.3914   1.6035   1.7217
     1.9797   2.0872   2.1476   2.2125   2.2335   2.3216   2.5421   2.7277
     2.7418   2.8185   2.9174   3.3837   3.5724   3.6153   3.7329   3.7484
     4.0252   4.1046   4.1381   4.2456   4.3166   4.4149   4.4790   4.5792
     4.6105   4.6328   4.8465   4.8961   4.9404   5.0666   5.3085   5.4608
     6.0782   6.3339   6.4994   6.8507   7.4682   7.7839   7.8363   9.0109
     9.3376

          k = 0.4167 0.4167 0.0386     band energies (ev):

  -106.7644-106.6809-106.6111 -64.2757 -64.2692 -64.2568 -64.2433 -64.2335
   -64.1916 -63.9562 -63.7359 -63.4875 -52.9902 -50.9476 -35.4850 -29.3084
   -29.1499 -29.1480 -28.9829 -27.2919 -27.2756 -27.2751 -19.7536 -19.5790
   -15.8618 -15.8573 -15.5599 -12.2780 -11.8217 -11.7242 -11.4585 -11.3993
   -11.2620 -11.1556 -11.1347 -11.0584 -11.0189 -10.8187 -10.6045 -10.5513
   -10.4298 -10.3808  -5.5476  -5.3549  -5.3436  -5.2647  -5.1553  -5.0774
    -0.9390  -0.3515   0.1715   0.3538   0.6399   0.6499   0.7166   0.7301
     0.7706   0.8134   1.0989   1.2060   1.2190   1.2467   1.3260   1.3998
     1.6252   2.0116   2.0476   2.1365   2.1999   2.2514   2.5019   2.5406
     2.6650   2.6753   2.9573   3.4853   3.7151   3.7915   3.9970   4.1133
     4.2664   4.4468   4.4900   4.5369   4.5846   4.6241   4.6397   4.7996
     4.8403   4.9039   5.0195   5.0681   5.0806   5.0997   5.3068   5.3850
     6.0789   7.1285   7.2106   7.4355   7.5325   7.8985   8.0809   9.2570
     9.4653

          k = 0.2500 0.0833-0.0386     band energies (ev):

  -106.7644-106.6809-106.6111 -64.2758 -64.2692 -64.2568 -64.2433 -64.2336
   -64.1916 -63.9562 -63.7359 -63.4875 -52.9909 -50.9485 -35.4974 -29.3149
   -29.1367 -29.1061 -28.9950 -27.2953 -27.2504 -27.2232 -19.8589 -19.6883
   -15.7741 -15.7092 -15.5040 -12.6577 -12.2673 -11.9560 -11.7323 -11.5691
   -11.5311 -11.2768 -11.1739 -11.1463 -11.0996 -10.8436 -10.7019 -10.5105
   -10.4995 -10.3649  -5.1563  -4.9744  -4.9683  -4.8532  -4.7787  -4.6375
     0.4814   0.6378   0.7828   0.8900   1.1888   1.2341   1.2992   1.3054
     1.4757   1.6345   1.9353   2.1339   2.1953   2.2218   2.2557   2.3128
     2.3408   2.4982   2.6107   2.7211   2.8186   2.8645   2.9945   3.0150
     3.1406   3.2071   3.3038   3.3319   3.3854   3.4336   3.5210   3.6585
     3.6723   3.7098   3.7414   3.8812   3.9002   4.0407   4.1200   4.2366
     4.3166   4.3601   4.4278   4.4558   4.6626   4.7156   4.9404   5.0281
     5.1953   5.3947   5.5999   6.2761   6.8151   6.9602   7.5506   8.4782
     8.5830

          k = 0.4167 0.0833-0.0386     band energies (ev):

  -106.7644-106.6809-106.6111 -64.2758 -64.2692 -64.2569 -64.2433 -64.2335
   -64.1916 -63.9562 -63.7359 -63.4875 -52.9907 -50.9482 -35.4932 -29.3109
   -29.1621 -29.1047 -28.9870 -27.2946 -27.2766 -27.2221 -19.8174 -19.6459
   -15.8893 -15.6958 -15.4971 -12.7852 -12.0027 -11.7317 -11.6624 -11.6269
   -11.4287 -11.3693 -11.1821 -11.1653 -11.1262 -10.8330 -10.7188 -10.4957
   -10.3500 -10.3228  -5.1744  -4.9785  -4.9287  -4.8294  -4.8086  -4.6441
     0.0246   0.2352   0.2413   0.6515   0.7914   1.2221   1.2369   1.3441
     1.4296   1.4730   1.5617   1.8583   1.8691   1.9418   2.0662   2.1406
     2.2389   2.3741   2.4185   2.5564   2.6847   2.7938   2.8504   2.8660
     2.9409   2.9561   3.2083   3.2649   3.3302   3.4059   3.4935   3.5559
     3.6333   3.7367   3.8109   3.8570   3.9201   4.0862   4.2115   4.2489
     4.2824   4.3841   4.5456   4.6790   4.7702   4.8173   4.9439   5.0198
     5.1514   5.3896   5.7027   6.3010   7.4088   7.5910   7.6185   8.6155
     9.5019

          k = 0.4167 0.2500-0.0386     band energies (ev):

  -106.7644-106.6809-106.6111 -64.2758 -64.2692 -64.2568 -64.2433 -64.2335
   -64.1916 -63.9562 -63.7359 -63.4875 -52.9904 -50.9479 -35.4891 -29.3097
   -29.1558 -29.1267 -28.9850 -27.2932 -27.2759 -27.2490 -19.7857 -19.6127
   -15.8749 -15.6873 -15.6297 -12.5682 -11.8128 -11.7376 -11.5314 -11.4131
   -11.3591 -11.2790 -11.2387 -11.2190 -11.0900 -10.7044 -10.6894 -10.5058
   -10.4515 -10.3632  -5.2890  -5.1433  -5.1399  -5.0726  -5.0252  -4.9351
    -0.4333   0.0318   0.2444   0.7771   0.8729   0.8961   0.9931   1.0832
     1.1225   1.2267   1.2456   1.2806   1.3798   1.3899   1.6027   1.7119
     1.9777   2.0877   2.2100   2.2434   2.3272   2.3974   2.5107   2.7885
     2.8317   2.9002   2.9152   3.3779   3.5750   3.6245   3.7347   3.8780
     4.0389   4.1101   4.1389   4.2251   4.2874   4.4008   4.4718   4.5174
     4.5746   4.6098   4.8195   4.8495   4.8919   4.9430   4.9662   5.1045
     6.0069   6.3485   6.5107   6.8508   7.4684   7.7841   7.8359   9.0111
     9.5466

     the Fermi energy is     5.5089 ev

     total energy              =   -2128.43709780 Ry
     Harris-Foulkes estimate   =   -2128.45998982 Ry
     estimated scf accuracy    <       0.29614054 Ry

     iteration # 21     ecut=    40.00 Ry     beta=0.15
     Davidson diagonalization with overlap
     ethr =  1.53E-04,  avg # of iterations =  2.3

     negative rho (up, down):  0.328E+00 0.000E+00

     total cpu time spent up to now is     3115.0 secs

     total energy              =   -2128.43729206 Ry
     Harris-Foulkes estimate   =   -2128.44085066 Ry
     estimated scf accuracy    <       0.17482080 Ry

     iteration # 22     ecut=    40.00 Ry     beta=0.15
     Davidson diagonalization with overlap
     ethr =  9.01E-05,  avg # of iterations =  3.1

     negative rho (up, down):  0.324E+00 0.000E+00

     total cpu time spent up to now is     3261.9 secs

     total energy              =   -2128.43354050 Ry
     Harris-Foulkes estimate   =   -2128.43904488 Ry
     estimated scf accuracy    <       0.14237423 Ry

     iteration # 23     ecut=    40.00 Ry     beta=0.15
     Davidson diagonalization with overlap
     ethr =  7.34E-05,  avg # of iterations =  1.2

     negative rho (up, down):  0.317E+00 0.000E+00

     total cpu time spent up to now is     3426.7 secs

     total energy              =   -2128.43663184 Ry
     Harris-Foulkes estimate   =   -2128.43903011 Ry
     estimated scf accuracy    <       0.19568861 Ry

     iteration # 24     ecut=    40.00 Ry     beta=0.15
     Davidson diagonalization with overlap
     ethr =  7.34E-05,  avg # of iterations =  1.0

     negative rho (up, down):  0.316E+00 0.000E+00

     total cpu time spent up to now is     3566.1 secs

     total energy              =   -2128.42350351 Ry
     Harris-Foulkes estimate   =   -2128.43805790 Ry
     estimated scf accuracy    <       0.17360958 Ry

     iteration # 25     ecut=    40.00 Ry     beta=0.15
     Davidson diagonalization with overlap
     ethr =  7.34E-05,  avg # of iterations =  3.1

     negative rho (up, down):  0.314E+00 0.000E+00

     total cpu time spent up to now is     3712.3 secs

     total energy              =   -2128.43486632 Ry
     Harris-Foulkes estimate   =   -2128.43308754 Ry
     estimated scf accuracy    <       0.06478168 Ry

     iteration # 26     ecut=    40.00 Ry     beta=0.15
     Davidson diagonalization with overlap
     ethr =  3.34E-05,  avg # of iterations =  3.4

     negative rho (up, down):  0.314E+00 0.000E+00

     total cpu time spent up to now is     3861.8 secs

     total energy              =   -2128.43345627 Ry
     Harris-Foulkes estimate   =   -2128.43657174 Ry
     estimated scf accuracy    <       0.24447071 Ry

     iteration # 27     ecut=    40.00 Ry     beta=0.15
     Davidson diagonalization with overlap
     ethr =  3.34E-05,  avg # of iterations =  1.0

     negative rho (up, down):  0.312E+00 0.000E+00

     total cpu time spent up to now is     4004.9 secs

     total energy              =   -2128.44038306 Ry
     Harris-Foulkes estimate   =   -2128.43448406 Ry
     estimated scf accuracy    <       0.10640829 Ry

     iteration # 28     ecut=    40.00 Ry     beta=0.15
     Davidson diagonalization with overlap
     ethr =  3.34E-05,  avg # of iterations =  1.6

     negative rho (up, down):  0.312E+00 0.000E+00

     total cpu time spent up to now is     4153.1 secs

     total energy              =   -2128.42419624 Ry
     Harris-Foulkes estimate   =   -2128.44551923 Ry
     estimated scf accuracy    <       0.72371331 Ry

     iteration # 29     ecut=    40.00 Ry     beta=0.15
     Davidson diagonalization with overlap
     ethr =  3.34E-05,  avg # of iterations =  1.0

     negative rho (up, down):  0.311E+00 0.000E+00

     total cpu time spent up to now is     4292.7 secs

     total energy              =   -2128.43138294 Ry
     Harris-Foulkes estimate   =   -2128.43320429 Ry
     estimated scf accuracy    <       0.11914674 Ry

     iteration # 30     ecut=    40.00 Ry     beta=0.15
     Davidson diagonalization with overlap
     ethr =  3.34E-05,  avg # of iterations =  1.0

     negative rho (up, down):  0.310E+00 0.000E+00

     total cpu time spent up to now is     4436.0 secs

          k = 0.0833 0.0833 0.0386     band energies (ev):

  -107.4214-107.2122-107.1869 -64.9233 -64.8822 -64.7895 -64.7260 -64.7133
   -64.7128 -64.6139 -64.3044 -64.2885 -51.8900 -51.1213 -36.2156 -28.2801
   -28.0343 -28.0317 -27.9182 -27.4673 -27.3849 -27.3843 -20.3901 -20.1802
   -16.5482 -16.2108 -16.2015 -12.8380 -12.1825 -12.1284 -12.0360 -11.8467
   -11.7894 -11.6307 -11.3506 -11.1986 -11.1463 -11.0265 -10.8844  -9.8921
    -9.8321  -9.5516  -5.6083  -5.4708  -5.3705  -5.3284  -5.2600  -5.1466
     0.3819   0.4725   0.4934   0.6805   0.6912   0.7925   1.1120   1.6584
     1.7612   2.0011   2.1094   2.1516   2.2474   2.2537   2.2879   2.3269
     2.3385   2.4454   2.5333   2.5480   2.6851   2.7665   2.8007   2.8315
     2.8821   2.9302   2.9713   2.9869   3.2358   3.2841   3.3276   3.3879
     3.4112   3.5344   3.5778   3.6444   3.7401   3.7960   3.8084   3.9290
     4.0486   4.1476   4.1886   4.3493   4.3672   4.3689   4.4574   4.5257
     4.5770   4.6245   4.8510   7.0833   7.1453   7.1735   7.5121   7.5581
     8.0516

          k = 0.0833 0.2500 0.0386     band energies (ev):

  -107.4214-107.2122-107.1869 -64.9233 -64.8822 -64.7895 -64.7259 -64.7134
   -64.7128 -64.6139 -64.3044 -64.2885 -51.8897 -51.1210 -36.2115 -28.2763
   -28.0629 -28.0310 -27.9076 -27.4682 -27.4091 -27.3837 -20.3495 -20.1389
   -16.4771 -16.4049 -16.1954 -12.5690 -12.1793 -12.1513 -11.8660 -11.8400
   -11.7721 -11.6960 -11.3066 -11.1547 -11.1091 -11.0273 -10.9719  -9.8701
    -9.6500  -9.5904  -5.5889  -5.5478  -5.4098  -5.2887  -5.2550  -5.0743
    -0.0679   0.1124   0.5546   0.6114   0.6968   0.8456   0.9312   1.0997
     1.3971   1.5891   1.6519   1.7275   1.7724   1.7940   1.8879   2.0449
     2.1321   2.1644   2.2524   2.4210   2.4948   2.5788   2.6278   2.6649
     2.7246   2.8255   2.8452   2.9884   3.0050   3.2092   3.2559   3.4448
     3.4673   3.5100   3.5602   3.7368   3.8086   3.8348   3.8707   3.9759
     4.0008   4.1128   4.1633   4.2131   4.3354   4.4139   4.5323   4.6333
     4.6679   4.9387   5.4425   7.1351   7.7051   7.8866   8.3528   8.4483
     8.5074

          k = 0.0833 0.4167 0.0386     band energies (ev):

  -107.4214-107.2122-107.1869 -64.9233 -64.8822 -64.7895 -64.7259 -64.7134
   -64.7128 -64.6139 -64.3044 -64.2884 -51.8894 -51.1207 -36.2074 -28.2725
   -28.0901 -28.0296 -27.8992 -27.4691 -27.4334 -27.3827 -20.3079 -20.0967
   -16.5792 -16.4018 -16.1886 -12.2974 -12.2561 -12.2221 -11.9230 -11.7534
   -11.7127 -11.6011 -11.2631 -11.1651 -11.0390 -11.0022 -10.9645  -9.8491
    -9.6039  -9.5039  -5.5806  -5.5584  -5.4161  -5.2649  -5.2293  -5.0807
    -0.5066  -0.2715   0.0350   0.6588   0.7668   0.8291   0.8458   0.9016
     0.9766   1.1163   1.2262   1.2615   1.3326   1.4574   1.7180   1.9058
     1.9612   1.9803   2.1158   2.2361   2.3018   2.3473   2.4292   2.4996
     2.5943   2.6444   2.8175   2.8686   2.9798   3.1444   3.2809   3.4613
     3.5276   3.5961   3.6517   3.6906   3.7800   3.7921   3.8396   3.9436
     3.9561   4.0469   4.1031   4.3345   4.4706   4.5590   4.7234   4.8646
     4.9788   5.0601   5.5585   7.1672   8.2975   8.4688   8.5172   8.5479
     9.0609

          k = 0.2500 0.2500 0.0386     band energies (ev):

  -107.4214-107.2122-107.1869 -64.9233 -64.8822 -64.7895 -64.7260 -64.7133
   -64.7128 -64.6139 -64.3044 -64.2885 -51.8894 -51.1207 -36.2074 -28.2737
   -28.0619 -28.0542 -27.9009 -27.4680 -27.4103 -27.4080 -20.3123 -20.1017
   -16.4092 -16.4010 -16.3818 -12.3191 -12.1235 -12.0483 -11.8439 -11.8126
   -11.7505 -11.6376 -11.2109 -11.2058 -11.0324 -11.0026 -10.9934  -9.8283
    -9.6674  -9.6364  -5.7594  -5.6162  -5.5326  -5.4309  -5.3392  -5.1291
    -0.5098  -0.1062   0.3693   0.4666   0.6343   0.8507   0.9517   1.0434
     1.0984   1.1841   1.2947   1.6298   1.6454   1.7477   1.7624   1.8571
     1.9457   2.0339   2.1197   2.1306   2.2865   2.3336   2.3771   2.4515
     2.5257   2.6674   2.8364   2.9429   2.9521   3.0181   3.1505   3.3309
     3.5377   3.6189   3.6990   3.7392   3.7857   3.8330   3.8610   4.1263
     4.1517   4.2830   4.3125   4.3930   4.5006   4.5783   4.6513   4.6533
     5.3907   5.4482   5.6011   7.6116   7.8547   8.2591   8.5571   8.7069
     8.7797

          k = 0.2500 0.4167 0.0386     band energies (ev):

  -107.4214-107.2122-107.1869 -64.9233 -64.8822 -64.7895 -64.7259 -64.7134
   -64.7128 -64.6139 -64.3044 -64.2885 -51.8892 -51.1204 -36.2033 -28.2712
   -28.0838 -28.0534 -27.8950 -27.4679 -27.4343 -27.4092 -20.2751 -20.0638
   -16.5652 -16.3781 -16.3373 -12.1894 -12.0297 -11.9955 -11.8615 -11.8113
   -11.7136 -11.3563 -11.1838 -11.1069 -11.0372 -10.9948 -10.9667  -9.7977
    -9.7296  -9.6233  -5.8445  -5.6113  -5.5710  -5.5375  -5.4632  -5.3680
    -0.9769  -0.5001   0.0827   0.3063   0.4550   0.5371   0.7058   0.8052
     0.8991   0.9793   1.1789   1.2280   1.3373   1.5691   1.6215   1.6805
     1.7491   1.8545   1.9321   1.9810   2.0662   2.1187   2.2111   2.2510
     2.3114   2.4461   2.7298   2.9778   3.0107   3.1622   3.3864   3.4699
     3.6411   3.7120   3.8134   3.8272   3.9824   4.0035   4.0261   4.1889
     4.2118   4.2929   4.4717   4.5284   4.6677   4.8221   4.8493   5.0061
     5.5217   5.7611   5.9606   7.7463   8.3794   8.6549   8.7306   8.9103
     9.2081

          k = 0.4167 0.4167 0.0386     band energies (ev):

  -107.4214-107.2122-107.1869 -64.9233 -64.8822 -64.7895 -64.7260 -64.7133
   -64.7128 -64.6139 -64.3044 -64.2885 -51.8889 -51.1201 -36.1993 -28.2699
   -28.0781 -28.0765 -27.8909 -27.4667 -27.4356 -27.4350 -20.2419 -20.0304
   -16.5524 -16.5480 -16.2693 -12.0810 -12.0157 -11.7908 -11.7410 -11.7017
   -11.6736 -11.2297 -11.1586 -11.0632 -10.9862 -10.9099 -10.9089  -9.8765
    -9.7534  -9.7185  -6.0624  -5.8532  -5.7836  -5.6948  -5.6588  -5.5133
    -1.4915  -0.9047   0.0943   0.1282   0.1545   0.2669   0.6604   0.7019
     0.8049   0.8740   1.0512   1.1962   1.2389   1.2527   1.4052   1.4560
     1.5963   1.6698   1.6775   1.7242   1.8812   1.9266   2.1432   2.1886
     2.3489   2.4374   2.5043   2.9383   3.4161   3.4571   3.6987   3.7998
     3.8743   3.9013   3.9777   4.0138   4.0459   4.0691   4.2168   4.2431
     4.3479   4.4310   4.7344   4.8356   4.8516   4.9225   4.9314   5.1789
     5.5292   6.5403   6.6822   8.3393   8.4503   8.6594   8.6964   8.8404
     9.0412

          k = 0.2500 0.0833-0.0386     band energies (ev):

  -107.4214-107.2122-107.1869 -64.9233 -64.8822 -64.7895 -64.7260 -64.7133
   -64.7128 -64.6139 -64.3044 -64.2885 -51.8897 -51.1210 -36.2115 -28.2763
   -28.0626 -28.0313 -27.9076 -27.4682 -27.4094 -27.3834 -20.3487 -20.1389
   -16.4769 -16.4006 -16.2028 -12.5741 -12.1576 -12.1493 -11.8972 -11.8658
   -11.7937 -11.7184 -11.3070 -11.1537 -11.1091 -11.0061 -10.9721  -9.8699
    -9.6501  -9.5903  -5.6622  -5.4753  -5.4097  -5.2887  -5.2845  -5.0744
    -0.0898   0.0948   0.5900   0.6525   0.7107   0.8664   1.0979   1.3974
     1.6032   1.6503   1.6602   1.7538   1.7918   1.8616   2.0373   2.0502
     2.1738   2.3239   2.3347   2.4348   2.5811   2.6317   2.6741   2.7305
     2.8184   2.8314   2.8562   2.9959   3.0982   3.2123   3.2579   3.3455
     3.4453   3.4721   3.5386   3.6983   3.7337   3.8045   3.8100   3.8481
     3.8879   4.0002   4.1482   4.1626   4.2149   4.3057   4.4178   4.5250
     4.6455   4.8639   5.0303   7.1345   7.7014   7.8868   8.0592   8.3556
     8.5079

          k = 0.4167 0.0833-0.0386     band energies (ev):

  -107.4214-107.2122-107.1869 -64.9233 -64.8822 -64.7895 -64.7260 -64.7133
   -64.7128 -64.6139 -64.3044 -64.2885 -51.8894 -51.1207 -36.2073 -28.2725
   -28.0898 -28.0299 -27.8991 -27.4691 -27.4336 -27.3824 -20.3064 -20.0968
   -16.5774 -16.4013 -16.1960 -12.2863 -12.2631 -12.2184 -11.9968 -11.7886
   -11.7557 -11.6018 -11.2639 -11.1639 -11.0393 -10.9845 -10.9636  -9.8489
    -9.6036  -9.5041  -5.6797  -5.4401  -5.4143  -5.3129  -5.2658  -5.0807
    -0.5342  -0.2982   0.6025   0.7719   0.8186   0.8406   0.8979   0.9778
     1.1188   1.2271   1.2793   1.3425   1.5474   1.6789   1.7316   1.9702
     2.1126   2.1785   2.2796   2.3333   2.3613   2.4329   2.5002   2.6032
     2.6484   2.7781   2.8085   2.9081   3.1533   3.1613   3.2823   3.3596
     3.4833   3.5372   3.5770   3.6459   3.6870   3.7685   3.7834   3.9034
     3.9531   3.9837   4.0487   4.0907   4.1705   4.3088   4.4898   4.5703
     4.7236   4.8616   5.1366   7.1671   8.2975   8.4689   8.5172   8.5477
     8.8876

          k = 0.4167 0.2500-0.0386     band energies (ev):

  -107.4214-107.2122-107.1869 -64.9233 -64.8822 -64.7895 -64.7260 -64.7133
   -64.7128 -64.6139 -64.3044 -64.2885 -51.8892 -51.1204 -36.2033 -28.2712
   -28.0835 -28.0537 -27.8950 -27.4679 -27.4345 -27.4089 -20.2743 -20.0639
   -16.5634 -16.3824 -16.3371 -12.1505 -12.0443 -12.0095 -11.9035 -11.8606
   -11.7144 -11.3570 -11.1845 -11.1052 -11.0370 -10.9766 -10.9671  -9.7974
    -9.7294  -9.6236  -5.7989  -5.6481  -5.5835  -5.5717  -5.4619  -5.3681
    -0.9891  -0.5204   0.3138   0.4631   0.5291   0.6604   0.8028   0.8614
     0.8992   0.9801   1.1592   1.2283   1.3380   1.6334   1.6843   1.7104
     1.8390   1.8551   1.9242   1.9614   2.0667   2.1954   2.2605   2.2960
     2.3842   2.4464   2.7269   2.9832   3.0172   3.2911   3.4034   3.4864
     3.6212   3.6835   3.8019   3.8212   3.9151   3.9869   4.0228   4.1642
     4.2504   4.2823   4.3600   4.4612   4.4721   4.5545   4.6683   4.8231
     5.4567   5.7787   5.9693   7.7461   8.3798   8.6541   8.7305   8.9091
     9.0466

     the Fermi energy is     5.0412 ev

     total energy              =   -2128.43196412 Ry
     Harris-Foulkes estimate   =   -2128.43192730 Ry
     estimated scf accuracy    <       0.11212094 Ry

     iteration # 31     ecut=    40.00 Ry     beta=0.15
     Davidson diagonalization with overlap
     ethr =  3.34E-05,  avg # of iterations =  1.0

     negative rho (up, down):  0.308E+00 0.000E+00

     total cpu time spent up to now is     4580.7 secs

     total energy              =   -2128.44295238 Ry
     Harris-Foulkes estimate   =   -2128.43437852 Ry
     estimated scf accuracy    <       0.14123209 Ry

     iteration # 32     ecut=    40.00 Ry     beta=0.15
     Davidson diagonalization with overlap
     ethr =  3.34E-05,  avg # of iterations =  1.9

     negative rho (up, down):  0.307E+00 0.000E+00

     total cpu time spent up to now is     4728.6 secs

     total energy              =   -2128.44154822 Ry
     Harris-Foulkes estimate   =   -2128.45199232 Ry
     estimated scf accuracy    <       1.06840730 Ry

     iteration # 33     ecut=    40.00 Ry     beta=0.15
     Davidson diagonalization with overlap
     ethr =  3.34E-05,  avg # of iterations =  1.0

     negative rho (up, down):  0.308E+00 0.000E+00

     total cpu time spent up to now is     4873.9 secs

     total energy              =   -2128.43632978 Ry
     Harris-Foulkes estimate   =   -2128.44266037 Ry
     estimated scf accuracy    <       0.67505817 Ry

     iteration # 34     ecut=    40.00 Ry     beta=0.15
     Davidson diagonalization with overlap
     ethr =  3.34E-05,  avg # of iterations =  1.0

     negative rho (up, down):  0.307E+00 0.000E+00

     total cpu time spent up to now is     5017.6 secs

     total energy              =   -2128.43815106 Ry
     Harris-Foulkes estimate   =   -2128.43744037 Ry
     estimated scf accuracy    <       0.33802803 Ry

     iteration # 35     ecut=    40.00 Ry     beta=0.15
     Davidson diagonalization with overlap
     ethr =  3.34E-05,  avg # of iterations =  1.0

     negative rho (up, down):  0.307E+00 0.000E+00

     total cpu time spent up to now is     5169.0 secs

     total energy              =   -2128.42517156 Ry
     Harris-Foulkes estimate   =   -2128.43820998 Ry
     estimated scf accuracy    <       0.38579700 Ry

     iteration # 36     ecut=    40.00 Ry     beta=0.15
     Davidson diagonalization with overlap
     ethr =  3.34E-05,  avg # of iterations =  1.2

     negative rho (up, down):  0.308E+00 0.000E+00

     total cpu time spent up to now is     5313.6 secs

     total energy              =   -2128.43051190 Ry
     Harris-Foulkes estimate   =   -2128.43111257 Ry
     estimated scf accuracy    <       0.04419350 Ry

     iteration # 37     ecut=    40.00 Ry     beta=0.15
     Davidson diagonalization with overlap
     ethr =  2.28E-05,  avg # of iterations =  1.0

     negative rho (up, down):  0.308E+00 0.000E+00

     total cpu time spent up to now is     5468.8 secs

     total energy              =   -2128.42869890 Ry
     Harris-Foulkes estimate   =   -2128.43082785 Ry
     estimated scf accuracy    <       0.03182199 Ry

     iteration # 38     ecut=    40.00 Ry     beta=0.15
     Davidson diagonalization with overlap
     ethr =  1.64E-05,  avg # of iterations =  1.0

     negative rho (up, down):  0.309E+00 0.000E+00

     total cpu time spent up to now is     5616.1 secs

     total energy              =   -2128.42910156 Ry
     Harris-Foulkes estimate   =   -2128.42980513 Ry
     estimated scf accuracy    <       0.02362996 Ry

     iteration # 39     ecut=    40.00 Ry     beta=0.15
     Davidson diagonalization with overlap
     ethr =  1.22E-05,  avg # of iterations =  2.7

     negative rho (up, down):  0.308E+00 0.000E+00

     total cpu time spent up to now is     5775.6 secs

     total energy              =   -2128.42920321 Ry
     Harris-Foulkes estimate   =   -2128.42942163 Ry
     estimated scf accuracy    <       0.01453161 Ry

     iteration # 40     ecut=    40.00 Ry     beta=0.15
     Davidson diagonalization with overlap
     ethr =  7.49E-06,  avg # of iterations =  1.8

     negative rho (up, down):  0.308E+00 0.000E+00

     total cpu time spent up to now is     5927.5 secs

          k = 0.0833 0.0833 0.0386     band energies (ev):

  -107.3829-107.2454-107.1684 -64.8789 -64.8490 -64.7943 -64.7553 -64.7103
   -64.6816 -64.5796 -64.3388 -64.2724 -52.0424 -51.1786 -36.0593 -28.4236
   -28.1852 -28.1843 -27.8398 -27.5197 -27.4394 -27.4385 -20.4525 -20.1219
   -16.4076 -16.0629 -16.0530 -12.7873 -12.1559 -12.1249 -12.0628 -11.8118
   -11.7521 -11.5611 -11.4195 -11.2819 -11.1027 -11.0417 -10.8669  -9.8193
    -9.7631  -9.4912  -5.6611  -5.5295  -5.3842  -5.3042  -5.2087  -5.0941
     0.4090   0.5359   0.5606   0.7230   0.7665   0.8530   1.0467   1.7089
     1.7479   1.9706   2.1234   2.1521   2.1936   2.2627   2.3226   2.3318
     2.3485   2.4500   2.5206   2.5917   2.6705   2.7927   2.8073   2.8155
     2.8508   2.9344   2.9689   2.9988   3.2066   3.2966   3.3516   3.4033
     3.4561   3.5483   3.6337   3.6443   3.7357   3.7777   3.8452   3.8946
     4.0609   4.0729   4.1795   4.3229   4.3762   4.3920   4.4441   4.5598
     4.6199   4.6587   4.8630   6.9605   7.0234   7.0319   7.4812   7.5575
     8.0339

          k = 0.0833 0.2500 0.0386     band energies (ev):

  -107.3829-107.2454-107.1684 -64.8789 -64.8490 -64.7943 -64.7553 -64.7103
   -64.6816 -64.5796 -64.3387 -64.2724 -52.0421 -51.1783 -36.0552 -28.4209
   -28.2108 -28.1834 -27.8309 -27.5217 -27.4623 -27.4378 -20.4122 -20.0804
   -16.3345 -16.2614 -16.0468 -12.5206 -12.1905 -12.1124 -11.8953 -11.8000
   -11.7271 -11.6200 -11.3668 -11.2273 -11.0686 -11.0584 -10.9533  -9.7976
    -9.5947  -9.5305  -5.6424  -5.6036  -5.3454  -5.3110  -5.2351  -5.0218
    -0.0380   0.1931   0.5794   0.6421   0.7786   0.8602   0.9496   1.0448
     1.3412   1.6160   1.6882   1.7371   1.7584   1.8295   1.8973   2.0405
     2.1140   2.1418   2.2634   2.4347   2.4579   2.5989   2.6434   2.6683
     2.7545   2.8504   2.8773   2.9664   2.9838   3.2468   3.2757   3.3902
     3.3992   3.5299   3.5923   3.7530   3.8364   3.8905   3.9038   3.9888
     4.0020   4.0529   4.1327   4.2256   4.3389   4.4444   4.5678   4.6103
     4.6688   4.9848   5.4533   7.0109   7.5753   7.7428   8.2376   8.4336
     8.4562

          k = 0.0833 0.4167 0.0386     band energies (ev):

  -107.3830-107.2454-107.1684 -64.8789 -64.8490 -64.7943 -64.7553 -64.7103
   -64.6816 -64.5796 -64.3387 -64.2724 -52.0419 -51.1780 -36.0510 -28.4182
   -28.2361 -28.1822 -27.8227 -27.5236 -27.4851 -27.4369 -20.3710 -20.0381
   -16.4391 -16.2566 -16.0399 -12.2907 -12.2576 -12.1735 -11.8574 -11.7011
   -11.6537 -11.6165 -11.3233 -11.1873 -11.0457 -11.0070 -10.9737  -9.7761
    -9.5472  -9.4573  -5.6334  -5.6119  -5.3493  -5.2866  -5.2132  -5.0285
    -0.4736  -0.2012   0.0146   0.6881   0.7605   0.8072   0.8879   0.9048
     0.9755   1.0874   1.2132   1.2921   1.4053   1.4749   1.7677   1.9170
     1.9607   1.9898   2.0553   2.2012   2.3433   2.3674   2.4291   2.5048
     2.5828   2.6494   2.8399   2.9247   2.9669   3.1402   3.2166   3.4095
     3.5281   3.5969   3.6785   3.7249   3.8097   3.8152   3.8615   3.8725
     3.9683   4.0581   4.1613   4.3791   4.5061   4.5964   4.7364   4.8502
     4.9983   5.0206   5.5763   7.0418   8.1702   8.3417   8.3790   8.4894
     9.0340

          k = 0.2500 0.2500 0.0386     band energies (ev):

  -107.3830-107.2454-107.1684 -64.8789 -64.8490 -64.7943 -64.7553 -64.7103
   -64.6816 -64.5796 -64.3388 -64.2724 -52.0419 -51.1780 -36.0510 -28.4189
   -28.2099 -28.2067 -27.8227 -27.5220 -27.4643 -27.4609 -20.3752 -20.0431
   -16.2662 -16.2558 -16.2374 -12.2787 -12.1035 -12.0402 -11.8222 -11.7659
   -11.6618 -11.6609 -11.2606 -11.2448 -11.0319 -11.0297 -10.9689  -9.7654
    -9.6082  -9.5785  -5.8155  -5.6702  -5.4818  -5.3932  -5.3638  -5.0766
    -0.4639  -0.0365   0.3919   0.5436   0.6635   0.8382   0.9904   1.0298
     1.1242   1.2028   1.2640   1.6427   1.6551   1.6877   1.7413   1.8170
     1.9495   2.0304   2.1098   2.1215   2.3135   2.3363   2.3797   2.4136
     2.4849   2.6760   2.8226   2.9550   2.9609   3.0847   3.1277   3.3637
     3.5783   3.6309   3.7003   3.7408   3.8354   3.8685   3.8991   4.0905
     4.1495   4.2865   4.3716   4.4175   4.4544   4.5295   4.6356   4.6870
     5.4217   5.4577   5.6517   7.4844   7.7241   8.1149   8.6900   8.7287
     8.7961

          k = 0.2500 0.4167 0.0386     band energies (ev):

  -107.3830-107.2454-107.1684 -64.8789 -64.8490 -64.7943 -64.7553 -64.7103
   -64.6816 -64.5796 -64.3388 -64.2724 -52.0416 -51.1777 -36.0469 -28.4170
   -28.2328 -28.2058 -27.8148 -27.5224 -27.4869 -27.4628 -20.3384 -20.0051
   -16.4248 -16.2339 -16.1901 -12.1517 -12.0729 -11.9490 -11.8116 -11.7320
   -11.6505 -11.3835 -11.2230 -11.1436 -11.0376 -11.0207 -10.9540  -9.7365
    -9.6693  -9.5718  -5.8989  -5.6652  -5.5916  -5.5201  -5.3963  -5.3159
    -0.9289  -0.4357   0.0586   0.3351   0.5225   0.5879   0.7407   0.7739
     0.8732   0.9905   1.1897   1.2243   1.3027   1.5739   1.5814   1.6794
     1.7356   1.8092   1.9326   1.9843   2.0791   2.1467   2.1722   2.2332
     2.3097   2.4226   2.7312   2.9721   3.0555   3.1460   3.4546   3.5039
     3.6728   3.7227   3.7902   3.8615   3.9733   4.0171   4.0644   4.2168
     4.2438   4.3361   4.5544   4.5642   4.5874   4.8051   4.8265   4.9529
     5.5347   5.7932   6.0113   7.6174   8.2482   8.5335   8.5851   8.8685
     9.1756

          k = 0.4167 0.4167 0.0386     band energies (ev):

  -107.3830-107.2454-107.1684 -64.8789 -64.8490 -64.7943 -64.7553 -64.7103
   -64.6816 -64.5796 -64.3388 -64.2724 -52.0414 -51.1774 -36.0428 -28.4158
   -28.2297 -28.2289 -27.8068 -27.5213 -27.4891 -27.4881 -20.3053 -19.9716
   -16.4116 -16.4069 -16.1200 -12.0401 -11.9736 -11.8239 -11.7096 -11.6370
   -11.6061 -11.2388 -11.1987 -11.0555 -11.0278 -10.9224 -10.9092  -9.8100
    -9.7005  -9.6656  -6.1188  -5.9051  -5.7330  -5.7125  -5.6439  -5.4456
    -1.4392  -0.8408   0.1012   0.1534   0.1778   0.3350   0.6820   0.7207
     0.7389   0.9090   0.9192   1.1628   1.1839   1.2907   1.4215   1.4879
     1.5747   1.6600   1.6685   1.6992   1.9259   1.9687   2.0977   2.1681
     2.3439   2.4026   2.4858   2.9575   3.4005   3.5114   3.7371   3.8153
     3.8994   3.9209   4.0001   4.0171   4.0607   4.1127   4.2409   4.2754
     4.3865   4.4739   4.7546   4.8222   4.8550   4.8748   5.0358   5.0506
     5.5373   6.5671   6.7354   8.2088   8.3192   8.5868   8.6751   8.8732
     8.8961

          k = 0.2500 0.0833-0.0386     band energies (ev):

  -107.3829-107.2454-107.1684 -64.8789 -64.8490 -64.7943 -64.7553 -64.7103
   -64.6816 -64.5796 -64.3388 -64.2724 -52.0421 -51.1783 -36.0551 -28.4209
   -28.2105 -28.1837 -27.8308 -27.5217 -27.4621 -27.4381 -20.4114 -20.0805
   -16.3342 -16.2567 -16.0547 -12.5250 -12.1905 -12.0889 -11.8953 -11.8577
   -11.7676 -11.6349 -11.3669 -11.2274 -11.0681 -11.0243 -10.9535  -9.7976
    -9.5948  -9.5304  -5.7155  -5.5321  -5.3460  -5.3399  -5.2346  -5.0217
    -0.0578   0.1729   0.6192   0.7028   0.7865   0.9155   1.0406   1.3408
     1.6203   1.6688   1.6913   1.7471   1.8050   1.8854   2.0396   2.0577
     2.1204   2.3089   2.3369   2.4526   2.6037   2.6480   2.6741   2.7584
     2.7946   2.8492   2.8790   2.9814   3.0651   3.2476   3.2761   3.3445
     3.3940   3.4012   3.5766   3.6877   3.7494   3.8160   3.8344   3.8935
     3.9114   3.9928   4.0527   4.1385   4.2284   4.3389   4.4497   4.5614
     4.6767   4.8933   5.0603   7.0108   7.5754   7.7428   8.0532   8.2386
     8.4528

          k = 0.4167 0.0833-0.0386     band energies (ev):

  -107.3830-107.2454-107.1684 -64.8789 -64.8490 -64.7943 -64.7553 -64.7103
   -64.6816 -64.5796 -64.3388 -64.2724 -52.0419 -51.1780 -36.0510 -28.4182
   -28.2359 -28.1825 -27.8226 -27.5236 -27.4849 -27.4371 -20.3695 -20.0382
   -16.4370 -16.2561 -16.0478 -12.2880 -12.2521 -12.1775 -11.9439 -11.7491
   -11.6863 -11.6186 -11.3236 -11.1873 -11.0078 -11.0043 -10.9728  -9.7760
    -9.5471  -9.4574  -5.7333  -5.4910  -5.3723  -5.3475  -5.2142  -5.0283
    -0.4983  -0.2295   0.6415   0.7598   0.8115   0.8762   0.9044   0.9758
     1.0892   1.2136   1.3114   1.4177   1.5487   1.7017   1.7812   1.9647
     2.0543   2.1772   2.3094   2.3366   2.3821   2.4288   2.5033   2.5809
     2.6633   2.7550   2.8241   2.9612   3.1433   3.1477   3.2287   3.3391
     3.4190   3.5218   3.5727   3.6626   3.7236   3.8010   3.8091   3.8513
     3.9088   3.9689   4.0621   4.1504   4.2004   4.3529   4.5279   4.6027
     4.7363   4.8902   5.1697   7.0417   8.1715   8.3423   8.3789   8.4891
     8.8800

          k = 0.4167 0.2500-0.0386     band energies (ev):

  -107.3830-107.2454-107.1684 -64.8789 -64.8490 -64.7943 -64.7553 -64.7103
   -64.6816 -64.5796 -64.3388 -64.2724 -52.0416 -51.1777 -36.0469 -28.4170
   -28.2325 -28.2060 -27.8148 -27.5224 -27.4867 -27.4630 -20.3376 -20.0052
   -16.4227 -16.2387 -16.1898 -12.1172 -12.0722 -11.9830 -11.8434 -11.7944
   -11.6532 -11.3832 -11.2235 -11.1438 -11.0197 -11.0044 -10.9543  -9.7365
    -9.6693  -9.5719  -5.8550  -5.7019  -5.6362  -5.5209  -5.3950  -5.3160
    -0.9407  -0.4560   0.3426   0.5323   0.5793   0.6996   0.7736   0.8324
     0.8715   0.9909   1.1866   1.2095   1.3030   1.5818   1.6998   1.7224
     1.7792   1.8453   1.9344   1.9654   2.0702   2.2216   2.2486   2.2890
     2.3410   2.4225   2.7298   2.9786   3.0660   3.2770   3.4685   3.5206
     3.6440   3.6990   3.7770   3.8516   3.9235   3.9748   4.0553   4.1898
     4.2893   4.3163   4.3502   4.4232   4.5574   4.5755   4.5977   4.8058
     5.4641   5.8108   6.0201   7.6173   8.2496   8.5338   8.5851   8.8677
     9.0347

     the Fermi energy is     5.0410 ev

     total energy              =   -2128.42879114 Ry
     Harris-Foulkes estimate   =   -2128.42929835 Ry
     estimated scf accuracy    <       0.01143865 Ry

     iteration # 41     ecut=    40.00 Ry     beta=0.15
     Davidson diagonalization with overlap
     ethr =  5.90E-06,  avg # of iterations =  3.9

     negative rho (up, down):  0.308E+00 0.000E+00

     total cpu time spent up to now is     6072.7 secs

     total energy              =   -2128.42884292 Ry
     Harris-Foulkes estimate   =   -2128.42900323 Ry
     estimated scf accuracy    <       0.00148878 Ry

     iteration # 42     ecut=    40.00 Ry     beta=0.15
     Davidson diagonalization with overlap
     ethr =  7.67E-07,  avg # of iterations =  6.8

     negative rho (up, down):  0.307E+00 0.000E+00

     total cpu time spent up to now is     6234.7 secs

     total energy              =   -2128.42883778 Ry
     Harris-Foulkes estimate   =   -2128.42895372 Ry
     estimated scf accuracy    <       0.00140438 Ry

     iteration # 43     ecut=    40.00 Ry     beta=0.15
     Davidson diagonalization with overlap
     ethr =  7.24E-07,  avg # of iterations =  1.0

     negative rho (up, down):  0.307E+00 0.000E+00

     total cpu time spent up to now is     6388.5 secs

     total energy              =   -2128.42886638 Ry
     Harris-Foulkes estimate   =   -2128.42891555 Ry
     estimated scf accuracy    <       0.00118093 Ry

     iteration # 44     ecut=    40.00 Ry     beta=0.15
     Davidson diagonalization with overlap
     ethr =  6.09E-07,  avg # of iterations =  1.0

     negative rho (up, down):  0.307E+00 0.000E+00

     total cpu time spent up to now is     6540.7 secs

     total energy              =   -2128.42888378 Ry
     Harris-Foulkes estimate   =   -2128.42889488 Ry
     estimated scf accuracy    <       0.00013847 Ry

     iteration # 45     ecut=    40.00 Ry     beta=0.15
     Davidson diagonalization with overlap
     ethr =  7.14E-08,  avg # of iterations =  1.0

     negative rho (up, down):  0.307E+00 0.000E+00

     total cpu time spent up to now is     6690.5 secs

     total energy              =   -2128.42885531 Ry
     Harris-Foulkes estimate   =   -2128.42888614 Ry
     estimated scf accuracy    <       0.00010890 Ry

     iteration # 46     ecut=    40.00 Ry     beta=0.15
     Davidson diagonalization with overlap
     ethr =  5.61E-08,  avg # of iterations =  2.3

     negative rho (up, down):  0.307E+00 0.000E+00

     total cpu time spent up to now is     6838.4 secs

     total energy              =   -2128.42886100 Ry
     Harris-Foulkes estimate   =   -2128.42886599 Ry
     estimated scf accuracy    <       0.00006192 Ry

     iteration # 47     ecut=    40.00 Ry     beta=0.15
     Davidson diagonalization with overlap
     ethr =  3.19E-08,  avg # of iterations =  1.0

     negative rho (up, down):  0.307E+00 0.000E+00

     total cpu time spent up to now is     6977.7 secs

     total energy              =   -2128.42886076 Ry
     Harris-Foulkes estimate   =   -2128.42886323 Ry
     estimated scf accuracy    <       0.00003256 Ry

     iteration # 48     ecut=    40.00 Ry     beta=0.15
     Davidson diagonalization with overlap
     ethr =  1.68E-08,  avg # of iterations =  1.9

     negative rho (up, down):  0.307E+00 0.000E+00

     total cpu time spent up to now is     7126.7 secs

     total energy              =   -2128.42885490 Ry
     Harris-Foulkes estimate   =   -2128.42886221 Ry
     estimated scf accuracy    <       0.00002393 Ry

     iteration # 49     ecut=    40.00 Ry     beta=0.15
     Davidson diagonalization with overlap
     ethr =  1.23E-08,  avg # of iterations =  2.0

     negative rho (up, down):  0.307E+00 0.000E+00

     total cpu time spent up to now is     7249.9 secs

     End of self-consistent calculation

          k = 0.0833 0.0833 0.0386 ( 11523 PWs)   bands (ev):

  -107.3671-107.2677-107.1549 -64.8591 -64.8340 -64.8186 -64.7780 -64.7005
   -64.6827 -64.5683 -64.3586 -64.2393 -52.0073 -51.1212 -36.0623 -28.3814
   -28.1581 -28.1573 -27.7636 -27.4685 -27.3829 -27.3821 -20.5407 -20.1024
   -16.4110 -16.0652 -16.0562 -12.7985 -12.1350 -12.1221 -12.0670 -11.8290
   -11.8044 -11.5634 -11.3873 -11.2764 -11.1230 -11.0920 -10.8417  -9.7466
    -9.6895  -9.4322  -5.7401  -5.6143  -5.4682  -5.2851  -5.1894  -5.0749
     0.3906   0.5254   0.5602   0.6970   0.7692   0.8494   1.0901   1.6953
     1.7120   1.9980   2.1379   2.1634   2.2210   2.2381   2.2932   2.3332
     2.3452   2.4454   2.5259   2.5905   2.6740   2.7887   2.8116   2.8282
     2.8442   2.9204   2.9775   3.0133   3.2252   3.2812   3.3368   3.4004
     3.4569   3.5508   3.6352   3.6492   3.6994   3.7927   3.8488   3.8545
     4.0597   4.0816   4.1703   4.3292   4.3335   4.3887   4.4328   4.5277
     4.6176   4.6684   4.8356   6.9892   7.0497   7.0519   7.5228   7.5370
     8.0487

          k = 0.0833 0.2500 0.0386 ( 11500 PWs)   bands (ev):

  -107.3671-107.2677-107.1549 -64.8591 -64.8341 -64.8186 -64.7779 -64.7005
   -64.6827 -64.5683 -64.3585 -64.2393 -52.0070 -51.1209 -36.0582 -28.3788
   -28.1834 -28.1564 -27.7547 -27.4708 -27.4060 -27.3814 -20.5006 -20.0609
   -16.3379 -16.2635 -16.0502 -12.5339 -12.1559 -12.1197 -11.8920 -11.8263
   -11.7699 -11.6207 -11.3442 -11.2200 -11.1085 -11.0858 -10.9307  -9.7255
    -9.5242  -9.4721  -5.7222  -5.6869  -5.3954  -5.3262  -5.2159  -5.0026
    -0.0501   0.1955   0.5504   0.6256   0.7838   0.8318   0.9445   1.0818
     1.3656   1.5986   1.6846   1.7285   1.7569   1.8271   1.9006   2.0670
     2.1083   2.1450   2.2637   2.4180   2.4481   2.5931   2.6560   2.6775
     2.7546   2.8554   2.8836   2.9522   2.9915   3.2468   3.2804   3.3954
     3.4118   3.5227   3.5868   3.7568   3.8434   3.8833   3.9050   3.9671
     3.9922   4.0657   4.0957   4.2308   4.2952   4.4513   4.5591   4.5833
     4.6725   4.9876   5.4235   7.0396   7.6014   7.7617   8.2425   8.2609
     8.4113

          k = 0.0833 0.4167 0.0386 ( 11446 PWs)   bands (ev):

  -107.3671-107.2678-107.1549 -64.8591 -64.8341 -64.8185 -64.7779 -64.7005
   -64.6827 -64.5683 -64.3585 -64.2393 -52.0067 -51.1206 -36.0541 -28.3762
   -28.2087 -28.1553 -27.7465 -27.4729 -27.4288 -27.3805 -20.4596 -20.0186
   -16.4414 -16.2598 -16.0433 -12.2850 -12.2445 -12.1795 -11.8781 -11.7362
   -11.6588 -11.6172 -11.3040 -11.1777 -11.0959 -10.9914 -10.9827  -9.7036
    -9.4913  -9.3890  -5.7154  -5.6924  -5.3711  -5.3301  -5.1941  -5.0094
    -0.4823  -0.2005  -0.0179   0.6607   0.7685   0.7959   0.8831   0.9068
     0.9937   1.1046   1.2321   1.2851   1.4044   1.4619   1.7627   1.9146
     1.9501   1.9949   2.0926   2.1740   2.3381   2.3760   2.4375   2.5108
     2.5824   2.6499   2.8396   2.9160   2.9542   3.1441   3.2283   3.4215
     3.5277   3.5986   3.6774   3.7239   3.8009   3.8210   3.8316   3.8765
     3.9342   4.0691   4.1591   4.3785   4.5220   4.5993   4.7507   4.8047
     4.9578   5.0208   5.5513   7.0705   8.1958   8.3682   8.3996   8.5350
     8.9101

          k = 0.2500 0.2500 0.0386 ( 11480 PWs)   bands (ev):

  -107.3671-107.2677-107.1549 -64.8592 -64.8340 -64.8186 -64.7779 -64.7005
   -64.6827 -64.5683 -64.3586 -64.2393 -52.0067 -51.1206 -36.0541 -28.3769
   -28.1826 -28.1797 -27.7463 -27.4712 -27.4082 -27.4046 -20.4638 -20.0237
   -16.2700 -16.2579 -16.2404 -12.2967 -12.0650 -12.0376 -11.8449 -11.8158
   -11.6602 -11.6568 -11.2444 -11.2367 -11.0821 -11.0438 -10.9461  -9.7007
    -9.5477  -9.5091  -5.8987  -5.7501  -5.4766  -5.4627  -5.3445  -5.0576
    -0.4727  -0.0362   0.3880   0.5475   0.6287   0.8055   0.9851   1.0633
     1.1130   1.2221   1.2798   1.6453   1.6566   1.6808   1.7314   1.8160
     1.9575   2.0433   2.1054   2.1261   2.3097   2.3401   2.3786   2.3942
     2.4836   2.6831   2.8321   2.9524   2.9627   3.0848   3.1124   3.3768
     3.5793   3.6213   3.7201   3.7299   3.8221   3.8536   3.9021   4.1230
     4.1516   4.2596   4.3588   4.3673   4.4528   4.4885   4.6457   4.7030
     5.4176   5.4284   5.6519   7.5101   7.7512   8.1346   8.4637   8.6693
     8.7804

          k = 0.2500 0.4167 0.0386 ( 11449 PWs)   bands (ev):

  -107.3671-107.2677-107.1549 -64.8591 -64.8341 -64.8185 -64.7779 -64.7005
   -64.6827 -64.5683 -64.3586 -64.2393 -52.0065 -51.1203 -36.0500 -28.3750
   -28.2056 -28.1789 -27.7381 -27.4718 -27.4308 -27.4067 -20.4271 -19.9856
   -16.4271 -16.2375 -16.1931 -12.1691 -12.0288 -11.9601 -11.8231 -11.7601
   -11.6707 -11.3786 -11.2091 -11.1317 -11.0879 -11.0287 -10.9377  -9.6730
    -9.6101  -9.5064  -5.9816  -5.7451  -5.6744  -5.5012  -5.3769  -5.2970
    -0.9358  -0.4361   0.0249   0.3322   0.5260   0.5788   0.7103   0.7799
     0.8733   1.0053   1.2087   1.2270   1.3254   1.5416   1.5998   1.6737
     1.7433   1.8087   1.9503   1.9872   2.0748   2.1342   2.1494   2.2451
     2.3065   2.4337   2.7425   2.9785   3.0478   3.1319   3.4506   3.5155
     3.6726   3.7201   3.8084   3.8597   3.9827   4.0048   4.0635   4.1927
     4.2322   4.3385   4.5413   4.5698   4.5944   4.7828   4.8199   4.9111
     5.5082   5.7923   6.0112   7.6437   8.2748   8.5580   8.6059   8.9110
     9.1049

          k = 0.4167 0.4167 0.0386 ( 11432 PWs)   bands (ev):

  -107.3671-107.2677-107.1549 -64.8592 -64.8340 -64.8185 -64.7779 -64.7005
   -64.6827 -64.5683 -64.3586 -64.2393 -52.0062 -51.1200 -36.0459 -28.3738
   -28.2027 -28.2021 -27.7296 -27.4707 -27.4333 -27.4322 -20.3941 -19.9521
   -16.4144 -16.4101 -16.1230 -12.0558 -11.9886 -11.7714 -11.7270 -11.6711
   -11.6130 -11.2263 -11.1816 -11.0782 -11.0542 -10.9326 -10.8915  -9.7451
    -9.6436  -9.6064  -6.2016  -5.9867  -5.7922  -5.7142  -5.6251  -5.4263
    -1.4447  -0.8406   0.0671   0.1455   0.1773   0.3381   0.6871   0.7072
     0.7179   0.9118   0.9238   1.1682   1.2213   1.2925   1.4187   1.4818
     1.5802   1.6437   1.6794   1.7171   1.9353   1.9756   2.0701   2.1909
     2.3105   2.4118   2.5044   2.9616   3.3862   3.5018   3.7398   3.8229
     3.8961   3.9170   4.0238   4.0428   4.0577   4.1170   4.2164   4.2747
     4.3839   4.4393   4.7690   4.7800   4.8326   4.8701   5.0062   5.0606
     5.5100   6.5646   6.7343   8.2337   8.3438   8.6076   8.6402   8.8744
     8.9180

          k = 0.2500 0.0833-0.0386 ( 11500 PWs)   bands (ev):

  -107.3671-107.2677-107.1549 -64.8592 -64.8340 -64.8186 -64.7780 -64.7005
   -64.6826 -64.5683 -64.3586 -64.2393 -52.0070 -51.1209 -36.0582 -28.3788
   -28.1834 -28.1565 -27.7547 -27.4708 -27.4058 -27.3816 -20.4999 -20.0610
   -16.3375 -16.2602 -16.0568 -12.5378 -12.1557 -12.0981 -11.9024 -11.8921
   -11.7924 -11.6333 -11.3444 -11.2200 -11.0853 -11.0745 -10.9309  -9.7254
    -9.5243  -9.4720  -5.7952  -5.6159  -5.4245  -5.3263  -5.2154  -5.0026
    -0.0682   0.1783   0.6024   0.6768   0.7884   0.9131   1.0797   1.3656
     1.5857   1.6580   1.6874   1.7516   1.8037   1.8891   2.0415   2.0676
     2.1496   2.2799   2.3274   2.4507   2.5982   2.6606   2.6838   2.7513
     2.7764   2.8532   2.8851   2.9921   3.0445   3.2454   3.2801   3.3292
     3.3973   3.4135   3.5715   3.6558   3.7520   3.7855   3.8407   3.8934
     3.9080   3.9914   4.0659   4.0959   4.2333   4.3042   4.4560   4.5585
     4.6826   4.8772   5.0550   7.0395   7.6015   7.7617   8.0315   8.2427
     8.2626

          k = 0.4167 0.0833-0.0386 ( 11446 PWs)   bands (ev):

  -107.3671-107.2677-107.1549 -64.8592 -64.8340 -64.8186 -64.7780 -64.7005
   -64.6826 -64.5683 -64.3586 -64.2393 -52.0067 -51.1206 -36.0540 -28.3762
   -28.2086 -28.1553 -27.7465 -27.4729 -27.4286 -27.3807 -20.4582 -20.0187
   -16.4406 -16.2592 -16.0499 -12.2748 -12.2474 -12.1883 -11.9820 -11.7645
   -11.6884 -11.6188 -11.3044 -11.1775 -11.0549 -10.9915 -10.9819  -9.7035
    -9.4911  -9.3891  -5.8131  -5.5734  -5.4573  -5.3285  -5.1951  -5.0093
    -0.5046  -0.2246   0.6106   0.7682   0.8012   0.8752   0.9052   0.9942
     1.1093   1.2321   1.3059   1.4207   1.5099   1.6959   1.7769   1.9936
     2.0907   2.1587   2.2794   2.3289   2.3884   2.4368   2.5101   2.5809
     2.6606   2.7336   2.8236   2.9539   3.1299   3.1466   3.2372   3.3188
     3.4305   3.4926   3.5780   3.6682   3.7227   3.7930   3.8065   3.8515
     3.8901   3.9272   4.0719   4.1466   4.1678   4.3558   4.5411   4.6011
     4.7501   4.8732   5.1634   7.0704   8.1959   8.3682   8.3996   8.5347
     8.8586

          k = 0.4167 0.2500-0.0386 ( 11449 PWs)   bands (ev):

  -107.3671-107.2677-107.1549 -64.8592 -64.8340 -64.8186 -64.7779 -64.7005
   -64.6826 -64.5683 -64.3586 -64.2393 -52.0065 -51.1203 -36.0499 -28.3750
   -28.2055 -28.1790 -27.7381 -27.4718 -27.4306 -27.4069 -20.4264 -19.9857
   -16.4263 -16.2409 -16.1927 -12.1365 -12.0311 -11.9941 -11.8686 -11.8152
   -11.6616 -11.3786 -11.2096 -11.1316 -11.0546 -11.0277 -10.9380  -9.6728
    -9.6100  -9.5065  -5.9379  -5.7820  -5.7187  -5.5020  -5.3755  -5.2971
    -0.9469  -0.4544   0.3391   0.5332   0.5702   0.6683   0.7799   0.7973
     0.8717   1.0056   1.1955   1.2247   1.3259   1.6004   1.6939   1.7249
     1.7791   1.8189   1.9513   1.9692   2.0698   2.2197   2.2456   2.2873
     2.3158   2.4337   2.7403   2.9873   3.0585   3.2620   3.4638   3.5270
     3.6348   3.6928   3.7975   3.8510   3.8941   4.0046   4.0562   4.1886
     4.2586   4.3024   4.3313   4.3844   4.5411   4.5782   4.6083   4.8204
     5.4319   5.8094   6.0203   7.6436   8.2749   8.5579   8.6059   8.9104
     9.0052

     the Fermi energy is     5.0278 ev

!    total energy              =   -2128.42885123 Ry
     Harris-Foulkes estimate   =   -2128.42885674 Ry
     estimated scf accuracy    <       0.00000733 Ry

     convergence has been achieved in  49 iterations

     Forces acting on atoms (Ry/au):


     negative rho (up, down):  0.307E+00 0.000E+00
     atom    1 type  1   force =     0.00000000    0.00000000   -0.01811347
     atom    2 type  1   force =     0.00000000    0.00000000    0.02086516
     atom    3 type  2   force =     0.00000000    0.00000000   -0.01078755
     atom    4 type  3   force =     0.00000000    0.00000000   -0.01535972
     atom    5 type  3   force =     0.00000000    0.00000000    0.00138434
     atom    6 type  3   force =     0.00000000    0.00000000   -0.00235452
     atom    7 type  4   force =     0.00000000    0.00000000    0.05066843
     atom    8 type  4   force =     0.00000000    0.00000000   -0.02699969
     atom    9 type  4   force =     0.00000000    0.00000000   -0.08893443
     atom   10 type  4   force =     0.00000000    0.00000000    0.01430839
     atom   11 type  4   force =     0.00000000    0.00000000    0.00040486
     atom   12 type  4   force =     0.00000000    0.00000000   -0.02173092
[...]
   -64.7076 -64.6033 -64.3764 -64.2618 -51.9003 -51.2404 -36.0775 -28.2878
   -28.0852 -28.0567 -27.7859 -27.5670 -27.5196 -27.4964 -20.5412 -20.1169
   -16.3595 -16.2848 -16.0700 -12.5592 -12.1842 -12.1439 -11.8997 -11.8483
   -11.7907 -11.6455 -11.3739 -11.1868 -11.1458 -11.1394 -10.9977  -9.7573
    -9.5583  -9.4984  -5.7615  -5.7260  -5.4343  -5.3821  -5.2731  -5.0567
    -0.0757   0.1703   0.5287   0.6021   0.7544   0.8150   0.9160   1.0556
     1.3516   1.5728   1.6621   1.7078   1.7392   1.8051   1.8761   1.9985
     2.0923   2.1104   2.2326   2.3956   2.4233   2.5678   2.6372   2.6471
     2.7289   2.8282   2.8537   2.9282   2.9581   3.2205   3.2643   3.3976
     3.4183   3.4975   3.5597   3.7120   3.8118   3.8536   3.8693   3.9369
     3.9863   4.0591   4.0866   4.1716   4.2594   4.3927   4.5317   4.5527
     4.6320   4.9588   5.3936   7.1633   7.7114   7.8365   8.1471   8.3800
     8.3946

          k = 0.0833 0.4167 0.0386 ( 11446 PWs)   bands (ev):

  -107.4002-107.2824-107.1794 -64.8909 -64.8657 -64.8287 -64.7946 -64.7257
   -64.7076 -64.6033 -64.3764 -64.2618 -51.9001 -51.2401 -36.0733 -28.2845
   -28.1114 -28.0554 -27.7782 -27.5699 -27.5409 -27.4956 -20.5002 -20.0745
   -16.4636 -16.2812 -16.0631 -12.3114 -12.2735 -12.2048 -11.9024 -11.7583
   -11.6803 -11.6272 -11.3324 -11.1804 -11.1234 -11.0568 -11.0080  -9.7354
    -9.5170  -9.4240  -5.7510  -5.7317  -5.4107  -5.3862  -5.2467  -5.0639
    -0.5081  -0.2222  -0.0424   0.6388   0.7703   0.8103   0.8640   0.8787
     0.9301   1.0724   1.2004   1.2604   1.3791   1.4375   1.7309   1.8831
     1.9173   1.9410   2.0487   2.1513   2.3062   2.3502   2.4202   2.4874
     2.5712   2.6225   2.8127   2.8887   2.9284   3.1422   3.2217   3.4272
     3.5102   3.5822   3.6545   3.6980   3.7692   3.7788   3.7963   3.8857
     3.9037   3.9932   4.1313   4.3501   4.4892   4.5719   4.6715   4.7751
     4.9340   4.9917   5.5129   7.1962   8.3305   8.4036   8.4767   8.5625
     8.8133

          k = 0.2500 0.2500 0.0386 ( 11480 PWs)   bands (ev):

  -107.4002-107.2824-107.1794 -64.8909 -64.8657 -64.8287 -64.7947 -64.7257
   -64.7076 -64.6033 -64.3764 -64.2618 -51.9001 -51.2401 -36.0733 -28.2855
   -28.0844 -28.0801 -27.7776 -27.5678 -27.5230 -27.5181 -20.5045 -20.0796
   -16.2904 -16.2801 -16.2613 -12.3216 -12.0942 -12.0631 -11.8681 -11.8352
   -11.6850 -11.6660 -11.2712 -11.2308 -11.1131 -11.0758 -11.0148  -9.7303
    -9.5743  -9.5434  -5.9387  -5.7893  -5.5208  -5.5138  -5.4004  -5.1108
    -0.4991  -0.0618   0.3616   0.5244   0.6061   0.7911   0.9588   1.0319
     1.0846   1.2016   1.2632   1.6174   1.6520   1.6914   1.7143   1.8002
     1.9001   1.9944   2.0833   2.1043   2.2854   2.3212   2.3593   2.3691
     2.4659   2.6410   2.7993   2.9272   2.9313   3.0555   3.0890   3.3488
     3.5508   3.5937   3.7035   3.7102   3.7909   3.8255   3.8718   4.1044
     4.1232   4.2252   4.3198   4.3286   4.4427   4.4598   4.6010   4.6639
     5.3890   5.3980   5.6263   7.6131   7.8664   8.2087   8.5209   8.6344
     8.6590

          k = 0.2500 0.4167 0.0386 ( 11449 PWs)   bands (ev):

  -107.4002-107.2824-107.1794 -64.8909 -64.8657 -64.8287 -64.7946 -64.7257
   -64.7076 -64.6033 -64.3764 -64.2618 -51.8998 -51.2398 -36.0692 -28.2833
   -28.1073 -28.0794 -27.7698 -27.5687 -27.5440 -27.5215 -20.4678 -20.0416
   -16.4492 -16.2582 -16.2143 -12.1948 -12.0601 -11.9842 -11.8465 -11.7833
   -11.6935 -11.3853 -11.2343 -11.1252 -11.1153 -11.0728 -10.9991  -9.7020
    -9.6370  -9.5391  -6.0198  -5.7841  -5.7142  -5.5586  -5.4315  -5.3527
    -0.9612  -0.4592   0.0002   0.3060   0.5035   0.5531   0.6920   0.8318
     0.8489   0.9330   1.1809   1.1956   1.2969   1.5277   1.6028   1.6528
     1.7317   1.7916   1.9043   1.9589   2.0405   2.1138   2.1241   2.2126
     2.2852   2.4099   2.7070   2.9431   3.0204   3.1068   3.4208   3.4894
     3.6460   3.6938   3.7997   3.8327   3.9493   3.9975   4.0365   4.1565
     4.1896   4.3029   4.4900   4.5405   4.5888   4.7549   4.7613   4.8848
     5.4673   5.7649   5.9829   7.7518   8.3878   8.6805   8.7469   8.8021
     9.0098

          k = 0.4167 0.4167 0.0386 ( 11432 PWs)   bands (ev):

  -107.4003-107.2824-107.1794 -64.8909 -64.8657 -64.8287 -64.7946 -64.7257
   -64.7076 -64.6033 -64.3764 -64.2618 -51.8996 -51.2395 -36.0651 -28.2820
   -28.1037 -28.1027 -27.7611 -27.5676 -27.5479 -27.5465 -20.4349 -20.0082
   -16.4363 -16.4318 -16.1438 -12.0809 -12.0127 -11.8059 -11.7508 -11.6934
   -11.6354 -11.2352 -11.1829 -11.1054 -11.0979 -10.9514 -10.9498  -9.7736
    -9.6707  -9.6351  -6.2414  -6.0277  -5.8306  -5.7743  -5.6838  -5.4793
    -1.4696  -0.8627   0.0425   0.1187   0.1502   0.3195   0.6898   0.6916
     0.7439   0.8269   0.9811   1.1647   1.1984   1.2145   1.3980   1.4566
     1.5559   1.6302   1.6427   1.6893   1.9093   1.9503   2.0465   2.1347
     2.3058   2.3974   2.4653   2.9308   3.3614   3.4728   3.7113   3.7980
     3.8708   3.8941   4.0103   4.0258   4.0402   4.0898   4.1854   4.2486
     4.3538   4.4069   4.6949   4.7519   4.7979   4.8055   4.9540   5.0808
     5.4685   6.5372   6.7009   8.3441   8.4556   8.5949   8.7480   8.9302
     8.9937

          k = 0.2500 0.0833-0.0386 ( 11500 PWs)   bands (ev):

  -107.4002-107.2824-107.1794 -64.8909 -64.8656 -64.8287 -64.7947 -64.7258
   -64.7075 -64.6033 -64.3764 -64.2618 -51.9003 -51.2404 -36.0775 -28.2878
   -28.0851 -28.0567 -27.7859 -27.5670 -27.5194 -27.4966 -20.5406 -20.1169
   -16.3593 -16.2811 -16.0766 -12.5636 -12.1842 -12.1217 -11.9203 -11.8997
   -11.8149 -11.6589 -11.3741 -11.1867 -11.1455 -11.1082 -10.9978  -9.7572
    -9.5583  -9.4984  -5.8335  -5.6561  -5.4625  -5.3822  -5.2727  -5.0568
    -0.0942   0.1527   0.5786   0.6563   0.7605   0.8843   1.0534   1.3518
     1.5808   1.6333   1.6652   1.7403   1.7797   1.8640   1.9962   2.0196
     2.1162   2.2422   2.3046   2.4268   2.5745   2.6449   2.6528   2.7253
     2.7528   2.8257   2.8551   2.9563   3.0230   3.2194   3.2645   3.2986
     3.3999   3.4192   3.5439   3.6297   3.7089   3.7529   3.8080   3.8634
     3.8742   3.9855   4.0589   4.0850   4.1736   4.2670   4.3968   4.5280
     4.6425   4.8512   5.0302   7.1633   7.7115   7.8365   8.0094   8.1472
     8.3801

          k = 0.4167 0.0833-0.0386 ( 11446 PWs)   bands (ev):

  -107.4002-107.2824-107.1794 -64.8910 -64.8656 -64.8287 -64.7947 -64.7258
   -64.7075 -64.6033 -64.3765 -64.2618 -51.9001 -51.2401 -36.0733 -28.2845
   -28.1114 -28.0555 -27.7782 -27.5699 -27.5407 -27.4958 -20.4989 -20.0746
   -16.4622 -16.2808 -16.0697 -12.3007 -12.2764 -12.2135 -12.0014 -11.7866
   -11.7118 -11.6278 -11.3327 -11.1800 -11.0887 -11.0568 -11.0075  -9.7354
    -9.5169  -9.4240  -5.8510  -5.6102  -5.4956  -5.3848  -5.2474  -5.0639
    -0.5308  -0.2462   0.5883   0.7757   0.8068   0.8596   0.8757   0.9306
     1.0761   1.2003   1.2808   1.3935   1.5064   1.6651   1.7470   1.9255
     2.0468   2.1409   2.2398   2.2972   2.3650   2.4196   2.4871   2.5703
     2.6333   2.7102   2.7937   2.9250   3.1073   3.1464   3.2282   3.2918
     3.4396   3.4646   3.5600   3.6500   3.6960   3.7558   3.7707   3.8304
     3.8893   3.8950   3.9968   4.1159   4.1339   4.3260   4.5087   4.5733
     4.6718   4.8455   5.1390   7.1961   8.3305   8.4034   8.4768   8.5625
     8.8373

          k = 0.4167 0.2500-0.0386 ( 11449 PWs)   bands (ev):

  -107.4002-107.2824-107.1794 -64.8909 -64.8656 -64.8287 -64.7947 -64.7258
   -64.7075 -64.6033 -64.3765 -64.2618 -51.8998 -51.2398 -36.0692 -28.2833
   -28.1073 -28.0794 -27.7698 -27.5687 -27.5438 -27.5216 -20.4671 -20.0417
   -16.4479 -16.2619 -16.2141 -12.1612 -12.0618 -12.0193 -11.8900 -11.8384
   -11.6845 -11.3853 -11.2346 -11.1247 -11.0857 -11.0724 -10.9992  -9.7019
    -9.6370  -9.5392  -5.9773  -5.8210  -5.7564  -5.5591  -5.4304  -5.3528
    -0.9724  -0.4773   0.3131   0.5111   0.5448   0.6454   0.7823   0.8312
     0.8478   0.9333   1.1654   1.1943   1.2973   1.6048   1.6724   1.7006
     1.7783   1.7991   1.9052   1.9391   2.0344   2.2001   2.2180   2.2609
     2.2919   2.4101   2.7040   2.9504   3.0314   3.2380   3.4348   3.5026
     3.6084   3.6641   3.7888   3.8252   3.8644   3.9970   4.0280   4.1529
     4.2175   4.2724   4.2903   4.3528   4.4898   4.5636   4.5914   4.7613
     5.3985   5.7819   5.9912   7.7517   8.3879   8.6805   8.7463   8.8020
     8.9737

     the Fermi energy is     5.0014 ev

!    total energy              =   -2128.44027256 Ry
     Harris-Foulkes estimate   =   -2128.44028681 Ry
     estimated scf accuracy    <       0.00001583 Ry

     convergence has been achieved in   8 iterations

     Forces acting on atoms (Ry/au):


     negative rho (up, down):  0.308E+00 0.000E+00
     atom    1 type  1   force =     0.00000000    0.00000000   -0.01623025
     atom    2 type  1   force =     0.00000000    0.00000000    0.01964528
     atom    3 type  2   force =     0.00000000    0.00000000   -0.01036791
     atom    4 type  3   force =     0.00000000    0.00000000   -0.01417122
     atom    5 type  3   force =     0.00000000    0.00000000   -0.00252087
     atom    6 type  3   force =     0.00000000    0.00000000   -0.00077578
     atom    7 type  4   force =     0.00000000    0.00000000    0.03382712
     atom    8 type  4   force =     0.00000000    0.00000000   -0.02245239
     atom    9 type  4   force =     0.00000000    0.00000000   -0.06419496
     atom   10 type  4   force =     0.00000000    0.00000000    0.01308162
     atom   11 type  4   force =     0.00000000    0.00000000    0.00097442
     atom   12 type  4   force =     0.00000000    0.00000000   -0.02059639
     atom   13 type  4   force =     0.00000000    0.00000000   -0.02598176
     atom   14 type  4   force =     0.00000000    0.00000000   -0.02059300
     atom   15 type  4   force =     0.00000000    0.00000000   -0.02594455
     atom   16 type  4   force =     0.00000000    0.00000000    0.00974657
     atom   17 type  4   force =     0.00000000    0.00000000    0.00092406
     atom   18 type  4   force =     0.00000000    0.00000000    0.01846331
     atom   19 type  5   force =     0.00000000    0.00000000   -0.00518654
     atom   20 type  6   force =     0.00000000    0.00000000    0.09099221
     atom   21 type  6   force =     0.00000000    0.00000000    0.04136101

     Total force =     0.139845     Total SCF correction =     0.012157


     entering subroutine stress ...


     negative rho (up, down):  0.308E+00 0.000E+00
          total   stress  (Ry/bohr**3)                   (kbar)     P=  -25.31
  -0.00017995   0.00000000   0.00000000        -26.47      0.00      0.00
   0.00000000  -0.00030487   0.00000000          0.00    -44.85      0.00
   0.00000000   0.00000000  -0.00003124          0.00      0.00     -4.60


     Entering Dynamics;  it =     8   time =  0.00678 pico-seconds

  new lattice vectors (alat unit) :
   1.000000000   0.000000000   0.000000000
   0.000000000   1.000000000   0.000000000
   0.000000000   0.000000000   6.484298116
  new unit-cell volume =   2684.5426 (a.u.)^3
  new positions in cryst coord
Ba       0.500000000   0.500000000   0.237401251
Ba       0.500000000   0.500000000   0.525806141
Y        0.500000000   0.500000000   0.381564256
Cu       0.000000000   0.000000000   0.608908553
Cu       0.000000000   0.000000000   0.315313998
Cu       0.000000000   0.000000000   0.447859468
O        0.000000000   0.000000000   0.227507015
O        0.000000000   0.000000000   0.536095538
O        0.000000000   0.000000000   0.075526204
O        0.500000000   0.000000000   0.325653815
O        0.500000000   0.000000000   0.437825815
O        0.500000000   0.000000000  -0.000400885
O        0.500000000   0.000000000   0.153716110
O        0.000000000   0.500000000  -0.000400791
O        0.000000000   0.500000000   0.153716987
O        0.000000000   0.500000000   0.325997675
O        0.000000000   0.500000000   0.437416090
O        0.000000000   0.500000000   0.609350232
Sr       0.500000000   0.500000000   0.077094108
Ti       0.000000000   0.000000000   0.000648684
Ti       0.000000000   0.000000000   0.154477630
  new positions in cart coord (alat unit)
Ba       0.500000000   0.500000000   1.539380486
Ba       0.500000000   0.500000000   3.409483771
Y        0.500000000   0.500000000   2.474176384
Cu       0.000000000   0.000000000   3.948344585
Cu       0.000000000   0.000000000   2.044589964
Cu       0.000000000   0.000000000   2.904054303
O        0.000000000   0.000000000   1.475223306
O        0.000000000   0.000000000   3.476203287
O        0.000000000   0.000000000   0.489734419
O        0.500000000   0.000000000   2.111636418
O        0.500000000   0.000000000   2.838993106
O        0.500000000   0.000000000  -0.002599460
O        0.500000000   0.000000000   0.996741086
O        0.000000000   0.500000000  -0.002598849
O        0.000000000   0.500000000   0.996746772
O        0.000000000   0.500000000   2.113866111
O        0.000000000   0.500000000   2.836336328
O        0.000000000   0.500000000   3.951208564
Sr       0.500000000   0.500000000   0.499901177
Ti       0.000000000   0.000000000   0.004206262
Ti       0.000000000   0.000000000   1.001679007

     Ekin =     0.01146834 Ry    T =   23.9 K  Etot = -2128.42880422
     new unit-cell volume =   2684.54259 a.u.^3 (   397.80816 Ang^3 )

CELL_PARAMETERS (alat=  7.45307987)
   1.000000000   0.000000000   0.000000000
   0.000000000   1.000000000   0.000000000
   0.000000000   0.000000000   6.484298116

ATOMIC_POSITIONS (crystal)
Ba       0.500000000   0.500000000   0.237401251    0   0   1
Ba       0.500000000   0.500000000   0.525806141    0   0   1
Y        0.500000000   0.500000000   0.381564256    0   0   1
Cu       0.000000000   0.000000000   0.608908553    0   0   1
Cu       0.000000000   0.000000000   0.315313998    0   0   1
Cu       0.000000000   0.000000000   0.447859468    0   0   1
O        0.000000000   0.000000000   0.227507015    0   0   1
O        0.000000000   0.000000000   0.536095538    0   0   1
O        0.000000000   0.000000000   0.075526204    0   0   1
O        0.500000000   0.000000000   0.325653815    0   0   1
O        0.500000000   0.000000000   0.437825815    0   0   1
O        0.500000000   0.000000000  -0.000400885    0   0   1
O        0.500000000   0.000000000   0.153716110    0   0   1
O        0.000000000   0.500000000  -0.000400791    0   0   1
O        0.000000000   0.500000000   0.153716987    0   0   1
O        0.000000000   0.500000000   0.325997675    0   0   1
O        0.000000000   0.500000000   0.437416090    0   0   1
O        0.000000000   0.500000000   0.609350232    0   0   1
Sr       0.500000000   0.500000000   0.077094108    0   0   1
Ti       0.000000000   0.000000000   0.000648684    0   0   1
Ti       0.000000000   0.000000000   0.154477630    0   0   1



     Writing output data file test_1_2.save
     Check: negative starting charge=   -0.319057
     NEW-OLD atomic charge density approx. for the potential
     NEW k-points:
        k(    1) = (   0.0833333   0.0833333   0.0385547), wk =   0.2222222
        k(    2) = (   0.0833333   0.2500000   0.0385547), wk =   0.2222222
        k(    3) = (   0.0833333   0.4166667   0.0385547), wk =   0.2222222
        k(    4) = (   0.2500000   0.2500000   0.0385547), wk =   0.2222222
        k(    5) = (   0.2500000   0.4166667   0.0385547), wk =   0.2222222
        k(    6) = (   0.4166667   0.4166667   0.0385547), wk =   0.2222222
        k(    7) = (   0.2500000   0.0833333  -0.0385547), wk =   0.2222222
        k(    8) = (   0.4166667   0.0833333  -0.0385547), wk =   0.2222222
        k(    9) = (   0.4166667   0.2500000  -0.0385547), wk =   0.2222222

     Check: negative/imaginary core charge=   -0.000022    0.000000
     Check: negative starting charge=   -0.319182

     negative rho (up, down):  0.308E+00 0.000E+00
     extrapolated charge  193.99955, renormalised to  194.00000

     total cpu time spent up to now is    19339.8 secs

     per-process dynamical memory:   278.9 Mb

     Self-consistent Calculation

     iteration #  1     ecut=    40.00 Ry     beta=0.15
     Davidson diagonalization with overlap
     ethr =  1.00E-06,  avg # of iterations =  3.8

     negative rho (up, down):  0.308E+00 0.000E+00

     total cpu time spent up to now is    19533.4 secs

     total energy              =   -2128.44299177 Ry
     Harris-Foulkes estimate   =   -2128.46233880 Ry
     estimated scf accuracy    <       0.02308302 Ry

     iteration #  2     ecut=    40.00 Ry     beta=0.15
     Davidson diagonalization with overlap
     ethr =  1.19E-05,  avg # of iterations =  1.0

     negative rho (up, down):  0.308E+00 0.000E+00

     total cpu time spent up to now is    19686.5 secs

     total energy              =   -2128.44309566 Ry
     Harris-Foulkes estimate   =   -2128.44317186 Ry
     estimated scf accuracy    <       0.00320764 Ry

     iteration #  3     ecut=    40.00 Ry     beta=0.15
     Davidson diagonalization with overlap
     ethr =  1.65E-06,  avg # of iterations =  1.0

     negative rho (up, down):  0.308E+00 0.000E+00

     total cpu time spent up to now is    19837.6 secs

     total energy              =   -2128.44309281 Ry
     Harris-Foulkes estimate   =   -2128.44313582 Ry
     estimated scf accuracy    <       0.00061989 Ry

     iteration #  4     ecut=    40.00 Ry     beta=0.15
     Davidson diagonalization with overlap
     ethr =  3.20E-07,  avg # of iterations =  1.0

     negative rho (up, down):  0.308E+00 0.000E+00

     total cpu time spent up to now is    19992.3 secs

     total energy              =   -2128.44304431 Ry
     Harris-Foulkes estimate   =   -2128.44310689 Ry
     estimated scf accuracy    <       0.00085764 Ry

     iteration #  5     ecut=    40.00 Ry     beta=0.15
     Davidson diagonalization with overlap
     ethr =  3.20E-07,  avg # of iterations =  2.9

     negative rho (up, down):  0.308E+00 0.000E+00

     total cpu time spent up to now is    20145.4 secs

     total energy              =   -2128.44307378 Ry
     Harris-Foulkes estimate   =   -2128.44308123 Ry
     estimated scf accuracy    <       0.00018252 Ry

     iteration #  6     ecut=    40.00 Ry     beta=0.15
     Davidson diagonalization with overlap
     ethr =  9.41E-08,  avg # of iterations =  1.2

     negative rho (up, down):  0.308E+00 0.000E+00

     total cpu time spent up to now is    20294.6 secs

     total energy              =   -2128.44307216 Ry
     Harris-Foulkes estimate   =   -2128.44307679 Ry
     estimated scf accuracy    <       0.00009188 Ry

     iteration #  7     ecut=    40.00 Ry     beta=0.15
     Davidson diagonalization with overlap
     ethr =  4.74E-08,  avg # of iterations =  1.0

     negative rho (up, down):  0.308E+00 0.000E+00

     total cpu time spent up to now is    20457.5 secs

     total energy              =   -2128.44306965 Ry
     Harris-Foulkes estimate   =   -2128.44307367 Ry
     estimated scf accuracy    <       0.00004311 Ry

     iteration #  8     ecut=    40.00 Ry     beta=0.15
     Davidson diagonalization with overlap
     ethr =  2.22E-08,  avg # of iterations =  1.2

     negative rho (up, down):  0.308E+00 0.000E+00

     total cpu time spent up to now is    20610.3 secs

     total energy              =   -2128.44306864 Ry
     Harris-Foulkes estimate   =   -2128.44307265 Ry
     estimated scf accuracy    <       0.00015597 Ry

     iteration #  9     ecut=    40.00 Ry     beta=0.15
     Davidson diagonalization with overlap
     ethr =  2.22E-08,  avg # of iterations =  1.8

     negative rho (up, down):  0.308E+00 0.000E+00

     total cpu time spent up to now is    20777.5 secs

     total energy              =   -2128.44306458 Ry
     Harris-Foulkes estimate   =   -2128.44306984 Ry
     estimated scf accuracy    <       0.00008674 Ry

     iteration # 10     ecut=    40.00 Ry     beta=0.15
     Davidson diagonalization with overlap
     ethr =  2.22E-08,  avg # of iterations =  1.1

     negative rho (up, down):  0.308E+00 0.000E+00
