
     Program PWSCF v.5.0.2 (svn rev. 9656) starts on  9Dec2013 at 11:39:12 

     This program is part of the open-source Quantum ESPRESSO suite
     for quantum simulation of materials; please cite
         "P. Giannozzi et al., J. Phys.:Condens. Matter 21 395502 (2009);
          URL http://www.quantum-espresso.org", 
     in publications or presentations arising from this work. More details at
     http://www.quantum-espresso.org/quote.php

     Parallel version (MPI & OpenMP), running on      32 processor cores
     Number of MPI processes:                 4
     Threads/MPI process:                     8
     K-points division:     npool     =       4

     Current dimensions of program PWSCF are:
     Max number of different atomic species (ntypx) = 10
     Max number of k-points (npk) =  40000
     Max angular momentum in pseudopotentials (lmaxx) =  3
     Reading input from YBCO_STO.pw.in

     Subspace diagonalization in iterative solution of the eigenvalue problem:
     a serial algorithm will be used

     Message from routine setup:
     Dynamics, you should have no symmetries
 
     G-vector sticks info
     --------------------
     sticks:   dense  smooth     PW     G-vecs:    dense   smooth      PW
     Sum         885     709    213               128253    91639   14365
 

     Title: 
     YBCO_STO_PBE_from_GBRV                                                     


     bravais-lattice index     =            8
     lattice parameter (alat)  =       7.4531  a.u.
     unit-cell volume          =    2684.5675 (a.u.)^3
     number of atoms/cell      =           21
     number of atomic types    =            6
     number of electrons       =       194.00
     number of Kohn-Sham states=          105
     kinetic-energy cutoff     =      40.0000  Ry
     charge density cutoff     =     200.0000  Ry
     convergence threshold     =      2.0E-05
     mixing beta               =       0.1500
     number of iterations used =            8  local-TF  mixing
     Exchange-correlation      = SLA  PW   PBE  PBE ( 1 4 3 4 0)
     EXX-fraction              =        0.00
     nstep                     =          100


     celldm(1)=   7.453080  celldm(2)=   1.000000  celldm(3)=   6.484358
     celldm(4)=   0.000000  celldm(5)=   0.000000  celldm(6)=   0.000000

     crystal axes: (cart. coord. in units of alat)
               a(1) = (   1.000000   0.000000   0.000000 )  
               a(2) = (   0.000000   1.000000   0.000000 )  
               a(3) = (   0.000000   0.000000   6.484358 )  

     reciprocal axes: (cart. coord. in units 2 pi/alat)
               b(1) = (  1.000000  0.000000  0.000000 )  
               b(2) = (  0.000000  1.000000  0.000000 )  
               b(3) = (  0.000000  0.000000  0.154217 )  


     PseudoPot. # 1 for Ba read from file:
     ../pbe/ba_pbe_v1.uspp.F.UPF
     MD5 check sum: 3380f63c22b3abf76d74aa74136bb909
     Pseudo is Ultrasoft + core correction, Zval = 10.0
     Generated by new atomic code, or converted to UPF format
     Using radial grid of  907 points,  7 beta functions with: 
                l(1) =   0
                l(2) =   0
                l(3) =   1
                l(4) =   1
                l(5) =   2
                l(6) =   2
                l(7) =   3
     Q(r) pseudized with  6 coefficients,  rinner =    1.700   1.700   1.700
                                                       1.700   1.700   1.700
                                                       1.700

     PseudoPot. # 2 for Y  read from file:
     ../pbe/y_pbe_v1.uspp.F.UPF
     MD5 check sum: 2cf71db95cafeb975fc457bd7f14888e
     Pseudo is Ultrasoft + core correction, Zval = 11.0
     Generated by new atomic code, or converted to UPF format
     Using radial grid of  885 points,  6 beta functions with: 
                l(1) =   0
                l(2) =   0
                l(3) =   1
                l(4) =   1
                l(5) =   2
                l(6) =   2
     Q(r) pseudized with  6 coefficients,  rinner =    1.200   1.200   1.200
                                                       1.200   1.200

     PseudoPot. # 3 for Cu read from file:
     ../pbe/cu_pbe_v1.uspp.F.UPF
     MD5 check sum: dd7df6c276b3c1af358798b42dbd4e5a
     Pseudo is Ultrasoft + core correction, Zval = 19.0
     Generated by new atomic code, or converted to UPF format
     Using radial grid of  867 points,  6 beta functions with: 
                l(1) =   0
                l(2) =   0
                l(3) =   1
                l(4) =   1
                l(5) =   2
                l(6) =   2
     Q(r) pseudized with  8 coefficients,  rinner =    1.100   1.100   1.100
                                                       1.100   1.100

     PseudoPot. # 4 for O  read from file:
     ../pbe/o_pbe_v1.01.uspp.F.UPF
     MD5 check sum: 2bcb18d16ea4b960afae9ec6d52f22d2
     Pseudo is Ultrasoft + core correction, Zval =  6.0
     Generated by new atomic code, or converted to UPF format
     Using radial grid of  737 points,  5 beta functions with: 
                l(1) =   0
                l(2) =   0
                l(3) =   1
                l(4) =   1
                l(5) =   2
     Q(r) pseudized with  8 coefficients,  rinner =    0.900   0.900   0.900
                                                       0.900   0.900

     PseudoPot. # 5 for Sr read from file:
     ../pbe/sr_pbe_v1.uspp.F.UPF
     MD5 check sum: 6b418c05fbe9db5448babca5e47b7a5b
     Pseudo is Ultrasoft + core correction, Zval = 10.0
     Generated by new atomic code, or converted to UPF format
     Using radial grid of  883 points,  6 beta functions with: 
                l(1) =   0
                l(2) =   0
                l(3) =   1
                l(4) =   1
                l(5) =   2
                l(6) =   2
     Q(r) pseudized with  6 coefficients,  rinner =    1.400   1.400   1.400
                                                       1.400   1.400

     PseudoPot. # 6 for Ti read from file:
     ../pbe/ti_pbe_v1.uspp.F.UPF
     MD5 check sum: bcc8f6961b3b91f0cac3ca967d22d0fb
     Pseudo is Ultrasoft + core correction, Zval = 12.0
     Generated by new atomic code, or converted to UPF format
     Using radial grid of  851 points,  6 beta functions with: 
                l(1) =   0
                l(2) =   0
                l(3) =   1
                l(4) =   1
                l(5) =   2
                l(6) =   2
     Q(r) pseudized with  6 coefficients,  rinner =    1.000   1.000   1.000
                                                       1.000   1.000

     atomic species   valence    mass     pseudopotential
        Ba            10.00   137.32700     Ba( 1.00)
        Y             11.00    88.90585     Y ( 1.00)
        Cu            19.00    63.54600     Cu( 1.00)
        O              6.00    15.99940     O ( 1.00)
        Sr            10.00    87.62000     Sr( 1.00)
        Ti            12.00    47.88000     Ti( 1.00)

      cell mass =  70.63890 AMU 

      4 Sym. Ops. (no inversion) found



   Cartesian axes

     site n.     atom                  positions (alat units)
         1           Ba  tau(   1) = (   0.5000000   0.5000000   1.5396411  )
         2           Ba  tau(   2) = (   0.5000000   0.5000000   3.4092178  )
         3           Y   tau(   3) = (   0.5000000   0.5000000   2.4744293  )
         4           Cu  tau(   4) = (   0.0000000   0.0000000   3.9488613  )
         5           Cu  tau(   5) = (   0.0000000   0.0000000   2.0447808  )
         6           Cu  tau(   6) = (   0.0000000   0.0000000   2.9040781  )
         7           O   tau(   7) = (   0.0000000   0.0000000   1.4694585  )
         8           O   tau(   8) = (   0.0000000   0.0000000   3.4794008  )
         9           O   tau(   9) = (   0.0000000   0.0000000   0.5000000  )
        10           O   tau(  10) = (   0.5000000   0.0000000   2.1099506  )
        11           O   tau(  11) = (   0.5000000   0.0000000   2.8389085  )
        12           O   tau(  12) = (   0.5000000   0.0000000   0.0000000  )
        13           O   tau(  13) = (   0.5000000   0.0000000   1.0000001  )
        14           O   tau(  14) = (   0.0000000   0.5000000   0.0000000  )
        15           O   tau(  15) = (   0.0000000   0.5000000   1.0000001  )
        16           O   tau(  16) = (   0.0000000   0.5000000   2.1126047  )
        17           O   tau(  17) = (   0.0000000   0.5000000   2.8362545  )
        18           O   tau(  18) = (   0.0000000   0.5000000   3.9488613  )
        19           Sr  tau(  19) = (   0.5000000   0.5000000   0.5000000  )
        20           Ti  tau(  20) = (   0.0000000   0.0000000   0.0000000  )
        21           Ti  tau(  21) = (   0.0000000   0.0000000   1.0000001  )

     number of k points=     9  gaussian smearing, width (Ry)=  0.0100
                       cart. coord. in units 2pi/alat
        k(    1) = (   0.0833333   0.0833333   0.0385543), wk =   0.2222222
        k(    2) = (   0.0833333   0.2500000   0.0385543), wk =   0.2222222
        k(    3) = (   0.0833333   0.4166667   0.0385543), wk =   0.2222222
        k(    4) = (   0.2500000   0.2500000   0.0385543), wk =   0.2222222
        k(    5) = (   0.2500000   0.4166667   0.0385543), wk =   0.2222222
        k(    6) = (   0.4166667   0.4166667   0.0385543), wk =   0.2222222
        k(    7) = (   0.2500000   0.0833333  -0.0385543), wk =   0.2222222
        k(    8) = (   0.4166667   0.0833333  -0.0385543), wk =   0.2222222
        k(    9) = (   0.4166667   0.2500000  -0.0385543), wk =   0.2222222

     Dense  grid:   128253 G-vectors     FFT dimensions: (  36,  36, 225)

     Smooth grid:    91639 G-vectors     FFT dimensions: (  32,  32, 200)

     Largest allocated arrays     est. size (Mb)     dimensions
        Kohn-Sham Wavefunctions        18.46 Mb     (  11523,  105)
        NL pseudopotentials            58.37 Mb     (  11523,  332)
        Each V/rho on FFT grid          4.45 Mb     ( 291600)
        Each G-vector array             0.98 Mb     ( 128253)
        G-vector shells                 0.98 Mb     ( 128253)
     Largest temporary arrays     est. size (Mb)     dimensions
        Auxiliary wavefunctions        73.85 Mb     (  11523,  420)
        Each subspace H/S matrix        2.69 Mb     ( 420, 420)
        Each <psi_i|beta_j> matrix      0.53 Mb     (    332,  105)
        Arrays for rho mixing          35.60 Mb     ( 291600,   8)
     writing wfc files to a dedicated directory

     Check: negative/imaginary core charge=   -0.000022    0.000000

     Initial potential from superposition of free atoms
     Check: negative starting charge=   -0.318837

     starting charge  188.93177, renormalised to  194.00000

     negative rho (up, down):  0.327E+00 0.000E+00
     Starting wfc are  159 randomized atomic wfcs

     total cpu time spent up to now is      115.2 secs

     per-process dynamical memory:   245.0 Mb

     Self-consistent Calculation

     iteration #  1     ecut=    40.00 Ry     beta=0.15
     Davidson diagonalization with overlap
     ethr =  1.00E-02,  avg # of iterations =  4.8

     negative rho (up, down):  0.327E+00 0.000E+00

     total cpu time spent up to now is      268.8 secs

     total energy              =   -2126.19263967 Ry
     Harris-Foulkes estimate   =   -2137.55232557 Ry
     estimated scf accuracy    <     642.56769766 Ry

     iteration #  2     ecut=    40.00 Ry     beta=0.15
     Davidson diagonalization with overlap
     ethr =  1.00E-02,  avg # of iterations =  5.0

     negative rho (up, down):  0.325E+00 0.000E+00

     total cpu time spent up to now is      414.7 secs

     total energy              =   -2127.99132722 Ry
     Harris-Foulkes estimate   =   -2131.21998827 Ry
     estimated scf accuracy    <     213.13557101 Ry

     iteration #  3     ecut=    40.00 Ry     beta=0.15
     Davidson diagonalization with overlap
     ethr =  1.00E-02,  avg # of iterations =  1.1

     negative rho (up, down):  0.322E+00 0.000E+00

     total cpu time spent up to now is      544.4 secs

     total energy              =   -2129.31566358 Ry
     Harris-Foulkes estimate   =   -2129.73013837 Ry
     estimated scf accuracy    <      12.93550515 Ry

     iteration #  4     ecut=    40.00 Ry     beta=0.15
     Davidson diagonalization with overlap
     ethr =  6.67E-03,  avg # of iterations =  1.8

     negative rho (up, down):  0.318E+00 0.000E+00

     total cpu time spent up to now is      684.5 secs

     total energy              =   -2129.17412947 Ry
     Harris-Foulkes estimate   =   -2129.68264874 Ry
     estimated scf accuracy    <       7.79654899 Ry

     iteration #  5     ecut=    40.00 Ry     beta=0.15
     Davidson diagonalization with overlap
     ethr =  4.02E-03,  avg # of iterations =  1.0

     negative rho (up, down):  0.314E+00 0.000E+00

     total cpu time spent up to now is      821.2 secs

     total energy              =   -2128.48273694 Ry
     Harris-Foulkes estimate   =   -2129.24046928 Ry
     estimated scf accuracy    <       5.40585033 Ry

     iteration #  6     ecut=    40.00 Ry     beta=0.15
     Davidson diagonalization with overlap
     ethr =  2.79E-03,  avg # of iterations =  4.0

     negative rho (up, down):  0.314E+00 0.000E+00

     total cpu time spent up to now is      961.1 secs

     total energy              =   -2128.71198932 Ry
     Harris-Foulkes estimate   =   -2129.13594561 Ry
     estimated scf accuracy    <      72.34243999 Ry

     iteration #  7     ecut=    40.00 Ry     beta=0.15
     Davidson diagonalization with overlap
     ethr =  2.79E-03,  avg # of iterations =  1.0

     negative rho (up, down):  0.314E+00 0.000E+00

     total cpu time spent up to now is     1089.5 secs

     total energy              =   -2128.41782653 Ry
     Harris-Foulkes estimate   =   -2128.85514299 Ry
     estimated scf accuracy    <      16.72859952 Ry

     iteration #  8     ecut=    40.00 Ry     beta=0.15
     Davidson diagonalization with overlap
     ethr =  2.79E-03,  avg # of iterations =  1.4

     negative rho (up, down):  0.317E+00 0.000E+00

     total cpu time spent up to now is     1215.6 secs

     total energy              =   -2128.60717422 Ry
     Harris-Foulkes estimate   =   -2128.67616163 Ry
     estimated scf accuracy    <       1.22495055 Ry

     iteration #  9     ecut=    40.00 Ry     beta=0.15
     Davidson diagonalization with overlap
     ethr =  6.31E-04,  avg # of iterations =  4.8

     negative rho (up, down):  0.317E+00 0.000E+00

     total cpu time spent up to now is     1348.9 secs

     total energy              =   -2128.64126937 Ry
     Harris-Foulkes estimate   =   -2128.63756875 Ry
     estimated scf accuracy    <       1.70452372 Ry

     iteration # 10     ecut=    40.00 Ry     beta=0.15
     Davidson diagonalization with overlap
     ethr =  6.31E-04,  avg # of iterations =  1.0

     negative rho (up, down):  0.317E+00 0.000E+00

     total cpu time spent up to now is     1477.1 secs

          k = 0.0833 0.0833 0.0386     band energies (ev):

  -107.4847-107.0730-106.5578 -65.0054 -65.0052 -64.6015 -64.5681 -64.5069
   -64.1536 -63.9793 -63.9645 -63.8267 -51.5862 -50.8146 -32.9081 -29.5000
   -27.8826 -27.8825 -27.8283 -27.2200 -27.2199 -27.1528 -19.2496 -18.4548
   -13.8253 -13.1358 -13.0965 -12.9949 -12.4765 -12.0431 -11.8975 -11.7523
   -11.4766 -11.3473 -11.0543 -10.9101 -10.8810 -10.7918 -10.7567 -10.7369
   -10.3109 -10.0933  -4.4972  -4.3479  -4.2174  -3.8184  -3.6681  -3.5488
     0.7496   1.2087   1.2493   1.3382   1.4019   1.5095   1.5442   1.6494
     1.7857   1.8153   2.0865   2.2363   2.3831   2.4327   2.5819   2.6322
     2.6821   2.7152   2.7727   2.9113   2.9398   3.0480   3.0886   3.1252
     3.1813   3.2305   3.2867   3.3452   3.3674   3.4936   3.5621   3.6051
     3.6271   3.6954   4.0171   4.0503   4.0862   4.1775   4.2085   4.3940
     4.4374   4.4840   4.6108   4.6551   4.7112   4.8709   4.9158   5.0159
     5.3266   5.5148   5.7577   7.0966   7.2710   7.3305   7.4357   7.4503
     7.9219

          k = 0.0833 0.2500 0.0386     band energies (ev):

  -107.4847-107.0730-106.5578 -65.0054 -65.0052 -64.6015 -64.5681 -64.5069
   -64.1536 -63.9793 -63.9645 -63.8267 -51.5859 -50.8142 -32.9031 -29.4923
   -27.9061 -27.8814 -27.8278 -27.2521 -27.2187 -27.1521 -19.2085 -18.4069
   -13.6788 -13.5097 -13.0999 -12.9407 -12.5205 -12.0073 -11.6459 -11.5623
   -11.4586 -11.1717 -11.1480 -10.9090 -10.8705 -10.7055 -10.6738 -10.6640
   -10.3672 -10.1536  -4.4745  -4.4241  -4.1435  -3.8565  -3.7145  -3.4735
     0.5779   0.7316   0.7386   0.8692   1.2652   1.3040   1.4476   1.4623
     1.5464   1.7302   1.8067   1.9148   1.9541   2.0859   2.2460   2.3643
     2.4304   2.5139   2.5384   2.6262   2.6539   2.8232   2.8548   2.9262
     2.9613   3.1271   3.2130   3.2635   3.2976   3.3741   3.4642   3.4914
     3.5961   3.6410   3.8182   3.9567   4.1160   4.1899   4.2578   4.4108
     4.5141   4.5870   4.7873   4.8338   4.9003   5.0070   5.0871   5.2677
     5.3978   5.4477   6.3277   7.4109   7.6998   8.0221   8.0708   8.3865
     8.5705

          k = 0.0833 0.4167 0.0386     band energies (ev):

  -107.4847-107.0730-106.5578 -65.0054 -65.0052 -64.6015 -64.5681 -64.5069
   -64.1536 -63.9793 -63.9645 -63.8267 -51.5856 -50.8138 -32.8981 -29.4847
   -27.9295 -27.8804 -27.8272 -27.2840 -27.2174 -27.1514 -19.1665 -18.3577
   -13.7915 -13.4986 -13.0887 -13.0678 -12.2735 -12.0338 -11.5306 -11.4200
   -11.3714 -11.3344 -11.2048 -10.8785 -10.7786 -10.6617 -10.5744 -10.4687
   -10.3891 -10.1844  -4.4556  -4.4355  -4.1227  -3.8600  -3.7222  -3.4636
     0.0866   0.2731   0.3916   0.4658   0.8134   0.8222   1.1530   1.3718
     1.4132   1.5930   1.6372   1.6637   1.6898   1.8632   2.0294   2.0965
     2.1810   2.3060   2.4742   2.5649   2.5788   2.6246   2.7285   2.7542
     2.8211   2.8948   2.9255   3.2284   3.3022   3.3274   3.3860   3.4684
     3.5510   3.8004   3.9402   3.9844   4.0990   4.2291   4.2662   4.3600
     4.7364   4.7752   4.8170   4.8416   4.9051   5.0411   5.0944   5.4047
     5.6811   5.7814   6.3905   7.5232   8.2567   8.7142   8.7419   9.4513
    10.2802

          k = 0.2500 0.2500 0.0386     band energies (ev):

  -107.4847-107.0730-106.5578 -65.0054 -65.0052 -64.6015 -64.5681 -64.5069
   -64.1536 -63.9793 -63.9645 -63.8267 -51.5856 -50.8138 -32.8981 -29.4845
   -27.9055 -27.9051 -27.8269 -27.2513 -27.2509 -27.1510 -19.1706 -18.3645
   -13.5531 -13.5012 -13.4479 -12.8340 -12.3466 -12.1082 -11.5656 -11.4565
   -11.2296 -11.0618 -11.0595 -10.9913 -10.8238 -10.7138 -10.6823 -10.6689
   -10.3732 -10.1244  -4.6460  -4.5017  -4.2218  -3.9771  -3.8739  -3.5522
     0.3074   0.5878   0.6890   0.7362   0.7915   1.0933   1.1373   1.1820
     1.5339   1.5465   1.6119   1.6248   1.7057   1.7499   1.9131   2.0303
     2.0413   2.1829   2.3731   2.4217   2.5321   2.6048   2.6073   2.7531
     2.7990   3.0628   3.0863   3.2514   3.5123   3.5203   3.5693   3.6440
     3.7832   3.8130   3.9654   4.0455   4.3273   4.3545   4.4632   4.5871
     4.6017   4.6575   4.7360   4.9227   4.9967   5.1047   5.3051   5.4291
     5.7466   6.1143   6.3484   7.7996   8.1996   8.2442   8.4366   8.9196
     9.6022

          k = 0.2500 0.4167 0.0386     band energies (ev):

  -107.4847-107.0731-106.5578 -65.0054 -65.0052 -64.6015 -64.5681 -64.5069
   -64.1536 -63.9793 -63.9645 -63.8267 -51.5853 -50.8134 -32.8932 -29.4767
   -27.9289 -27.9045 -27.8260 -27.2831 -27.2501 -27.1500 -19.1331 -18.3212
   -13.7626 -13.4652 -13.3554 -12.8325 -12.1148 -12.0346 -11.6555 -11.3522
   -11.3179 -11.1074 -11.0213 -10.8214 -10.7931 -10.6626 -10.5409 -10.5095
   -10.3724 -10.1729  -4.7219  -4.4954  -4.4323  -4.0352  -3.9052  -3.8118
    -0.1874   0.2248   0.2629   0.6497   0.7433   0.8276   0.8670   0.9156
     1.0442   1.0582   1.1546   1.2757   1.5650   1.6043   1.6662   1.8023
     2.0524   2.0666   2.1537   2.2364   2.3326   2.3962   2.5107   2.6201
     2.7244   2.8497   3.0611   3.3027   3.5626   3.6397   3.7364   3.7918
     3.7997   3.9631   4.1455   4.3457   4.4165   4.4338   4.6059   4.7414
     4.7947   4.8429   4.9509   4.9670   5.1032   5.2504   5.6319   5.7555
     6.0935   6.3553   6.4759   7.9836   8.5365   8.7085   8.8083   8.9487
     9.7642

          k = 0.4167 0.4167 0.0386     band energies (ev):

  -107.4847-107.0731-106.5578 -65.0054 -65.0052 -64.6015 -64.5681 -64.5069
   -64.1536 -63.9793 -63.9645 -63.8267 -51.5851 -50.8130 -32.8883 -29.4687
   -27.9284 -27.9282 -27.8247 -27.2825 -27.2823 -27.1485 -19.0991 -18.2840
   -13.7449 -13.7293 -13.1910 -12.5023 -12.1946 -11.9767 -11.5950 -11.3618
   -11.2277 -11.2186 -11.1909 -10.6230 -10.5791 -10.5329 -10.4966 -10.4823
   -10.3749 -10.1584  -4.9431  -4.7556  -4.5412  -4.2610  -4.1696  -3.9615
    -0.6441  -0.1357   0.1004   0.3392   0.4700   0.5700   0.7886   0.7893
     0.9011   0.9120   1.0596   1.0989   1.0993   1.2685   1.4110   1.6620
     1.6689   2.0262   2.0367   2.1294   2.2217   2.4319   2.4490   2.4906
     2.5489   2.7820   3.1327   3.5144   3.6962   3.7641   3.9963   4.1089
     4.2177   4.2785   4.3070   4.5176   4.5808   4.6568   4.8312   4.8761
     4.9845   5.1105   5.2209   5.2444   5.2611   5.4839   5.6124   5.7009
     6.3900   6.8411   7.1827   8.5007   8.8536   8.8851   9.1132   9.3135
     9.3252

          k = 0.2500 0.0833-0.0386     band energies (ev):

  -107.4847-107.0730-106.5578 -65.0054 -65.0052 -64.6015 -64.5681 -64.5069
   -64.1536 -63.9793 -63.9645 -63.8267 -51.5859 -50.8142 -32.9030 -29.4923
   -27.9061 -27.8814 -27.8277 -27.2523 -27.2186 -27.1521 -19.2074 -18.4070
   -13.6791 -13.5138 -13.1001 -12.9405 -12.5204 -12.0073 -11.6465 -11.5704
   -11.4584 -11.1716 -11.1240 -10.9074 -10.8800 -10.7950 -10.7163 -10.6655
   -10.3676 -10.0883  -4.5526  -4.3584  -4.1640  -3.8565  -3.7141  -3.4734
     0.5735   0.7314   0.7382   0.8394   1.2649   1.2974   1.4478   1.5245
     1.6453   1.7706   1.9145   1.9478   2.0824   2.2445   2.3690   2.4219
     2.5029   2.5282   2.6128   2.6314   2.7193   2.8441   2.9345   3.0636
     3.1323   3.2359   3.2662   3.2873   3.3667   3.4528   3.4826   3.5114
     3.6376   3.6864   3.8228   3.9469   4.0806   4.1391   4.2024   4.3799
     4.4466   4.5243   4.5634   4.6245   4.7895   4.8714   5.0464   5.0794
     5.3310   5.4267   5.8580   7.4053   7.6988   8.0223   8.0681   8.3574
     8.3801

          k = 0.4167 0.0833-0.0386     band energies (ev):

  -107.4847-107.0730-106.5578 -65.0054 -65.0052 -64.6015 -64.5681 -64.5069
   -64.1536 -63.9793 -63.9645 -63.8268 -51.5856 -50.8138 -32.8980 -29.4847
   -27.9295 -27.8804 -27.8272 -27.2841 -27.2173 -27.1514 -19.1643 -18.3579
   -13.8000 -13.4978 -13.0889 -13.0675 -12.2733 -12.0339 -11.5310 -11.3994
   -11.3697 -11.3449 -11.2048 -10.9470 -10.8633 -10.7161 -10.6108 -10.4705
   -10.3886 -10.0768  -4.5694  -4.3279  -4.1851  -3.8583  -3.7234  -3.4633
     0.0742   0.2724   0.3559   0.4653   0.8131   1.1515   1.3716   1.4050
     1.5758   1.6304   1.6392   1.6813   1.8707   2.0447   2.1259   2.1862
     2.3582   2.4629   2.4984   2.5640   2.5932   2.7287   2.7645   2.9255
     2.9938   3.1336   3.2304   3.3026   3.3230   3.3754   3.4209   3.4720
     3.7559   3.8349   3.9316   3.9859   4.0817   4.1230   4.2336   4.2898
     4.3175   4.6493   4.7575   4.8065   4.8264   4.9015   4.9789   5.0457
     5.2157   5.3867   5.9343   7.4401   8.2517   8.3519   8.7016   8.7201
     8.8357

          k = 0.4167 0.2500-0.0386     band energies (ev):

  -107.4847-107.0731-106.5578 -65.0054 -65.0052 -64.6015 -64.5681 -64.5069
   -64.1536 -63.9793 -63.9645 -63.8268 -51.5853 -50.8134 -32.8932 -29.4767
   -27.9289 -27.9045 -27.8260 -27.2833 -27.2500 -27.1500 -19.1320 -18.3213
   -13.7713 -13.4589 -13.3562 -12.8323 -12.1150 -12.0343 -11.6558 -11.3509
   -11.2906 -11.1075 -11.0309 -10.8659 -10.8033 -10.7669 -10.5425 -10.5114
   -10.3712 -10.0941  -4.6848  -4.5346  -4.4698  -4.0364  -3.9038  -3.8117
    -0.1972   0.1996   0.2624   0.6494   0.7432   0.8275   0.9153   1.0585
     1.0645   1.1533   1.2729   1.5648   1.5951   1.5993   1.6881   1.7980
     2.0492   2.0662   2.1519   2.2378   2.3495   2.4177   2.6237   2.6972
     2.7745   3.0106   3.0717   3.2900   3.5636   3.6534   3.7630   3.8046
     3.8636   4.0240   4.1509   4.3630   4.4075   4.4344   4.5898   4.7223
     4.7426   4.8157   4.8383   4.9329   5.1011   5.1675   5.2004   5.3187
     6.1046   6.3442   6.4947   7.9800   8.5405   8.7062   8.8007   8.9476
     9.5235

     the Fermi energy is     5.7417 ev

     total energy              =   -2128.59987231 Ry
     Harris-Foulkes estimate   =   -2128.64526844 Ry
     estimated scf accuracy    <       1.69441334 Ry

     iteration # 11     ecut=    40.00 Ry     beta=0.15
     Davidson diagonalization with overlap
     ethr =  6.31E-04,  avg # of iterations =  1.0

     negative rho (up, down):  0.324E+00 0.000E+00

     total cpu time spent up to now is     1609.3 secs

     total energy              =   -2128.45297658 Ry
     Harris-Foulkes estimate   =   -2128.61143845 Ry
     estimated scf accuracy    <       1.11001413 Ry

     iteration # 12     ecut=    40.00 Ry     beta=0.15
     Davidson diagonalization with overlap
     ethr =  5.72E-04,  avg # of iterations =  4.3

     negative rho (up, down):  0.324E+00 0.000E+00

     total cpu time spent up to now is     1748.3 secs

     total energy              =   -2128.60313603 Ry
     Harris-Foulkes estimate   =   -2128.61018272 Ry
     estimated scf accuracy    <      12.02294880 Ry

     iteration # 13     ecut=    40.00 Ry     beta=0.15
     Davidson diagonalization with overlap
     ethr =  5.72E-04,  avg # of iterations =  1.2

     negative rho (up, down):  0.326E+00 0.000E+00

     total cpu time spent up to now is     1880.7 secs

     total energy              =   -2128.78905725 Ry
     Harris-Foulkes estimate   =   -2128.61584830 Ry
     estimated scf accuracy    <      13.00642106 Ry

     iteration # 14     ecut=    40.00 Ry     beta=0.15
     Davidson diagonalization with overlap
     ethr =  5.72E-04,  avg # of iterations =  1.4

     negative rho (up, down):  0.326E+00 0.000E+00

     total cpu time spent up to now is     2011.2 secs

     total energy              =   -2128.58696759 Ry
     Harris-Foulkes estimate   =   -2128.95921883 Ry
     estimated scf accuracy    <      82.44527187 Ry

     iteration # 15     ecut=    40.00 Ry     beta=0.15
     Davidson diagonalization with overlap
     ethr =  5.72E-04,  avg # of iterations =  1.0

     negative rho (up, down):  0.324E+00 0.000E+00

     total cpu time spent up to now is     2137.0 secs

     total energy              =   -2128.64939080 Ry
     Harris-Foulkes estimate   =   -2128.72953749 Ry
     estimated scf accuracy    <      30.00275755 Ry

     iteration # 16     ecut=    40.00 Ry     beta=0.15
     Davidson diagonalization with overlap
     ethr =  5.72E-04,  avg # of iterations =  1.0

     negative rho (up, down):  0.324E+00 0.000E+00

     total cpu time spent up to now is     2269.1 secs

     total energy              =   -2128.27899448 Ry
     Harris-Foulkes estimate   =   -2128.68337640 Ry
     estimated scf accuracy    <      28.62070455 Ry

     iteration # 17     ecut=    40.00 Ry     beta=0.15
     Davidson diagonalization with overlap
     ethr =  5.72E-04,  avg # of iterations =  1.0

     negative rho (up, down):  0.325E+00 0.000E+00

     total cpu time spent up to now is     2404.2 secs

     total energy              =   -2128.47972710 Ry
     Harris-Foulkes estimate   =   -2128.50774997 Ry
     estimated scf accuracy    <       0.58163667 Ry

     iteration # 18     ecut=    40.00 Ry     beta=0.15
     Davidson diagonalization with overlap
     ethr =  3.00E-04,  avg # of iterations =  1.7

     negative rho (up, down):  0.328E+00 0.000E+00

     total cpu time spent up to now is     2539.5 secs

     total energy              =   -2128.47148529 Ry
     Harris-Foulkes estimate   =   -2128.48495125 Ry
     estimated scf accuracy    <       0.39534942 Ry

     iteration # 19     ecut=    40.00 Ry     beta=0.15
     Davidson diagonalization with overlap
     ethr =  2.04E-04,  avg # of iterations =  2.4

     negative rho (up, down):  0.330E+00 0.000E+00

     total cpu time spent up to now is     2670.6 secs

     total energy              =   -2128.46054855 Ry
     Harris-Foulkes estimate   =   -2128.47749787 Ry
     estimated scf accuracy    <       0.31506758 Ry

     iteration # 20     ecut=    40.00 Ry     beta=0.15
     Davidson diagonalization with overlap
     ethr =  1.62E-04,  avg # of iterations =  2.6

     negative rho (up, down):  0.329E+00 0.000E+00

     total cpu time spent up to now is     2805.5 secs

          k = 0.0833 0.0833 0.0386     band energies (ev):

  -106.7216-106.4589-106.4373 -64.2341 -64.1954 -64.0148 -64.0104 -63.9978
   -63.9753 -63.9154 -63.5380 -63.4930 -53.0836 -51.0093 -35.3658 -29.4134
   -29.1975 -29.1926 -29.1387 -27.3520 -27.2835 -27.2829 -19.8514 -19.6771
   -15.7257 -15.3900 -15.3814 -12.7070 -12.3869 -12.2011 -11.7912 -11.7129
   -11.4824 -11.2092 -11.1591 -11.0280 -10.9963 -10.9832 -10.9263 -10.6237
   -10.4086 -10.3583  -5.0501  -4.9148  -4.8827  -4.7823  -4.7706  -4.6674
     0.7151   1.0179   1.1078   1.1223   1.3015   1.3987   1.4228   1.5104
     1.6750   2.0094   2.2213   2.3055   2.3389   2.4486   2.4644   2.6898
     2.7422   2.8213   2.9209   3.0186   3.0732   3.1881   3.2042   3.2483
     3.3807   3.4355   3.4873   3.5324   3.5439   3.6094   3.6430   3.7172
     3.7479   3.8274   3.9326   3.9622   4.0078   4.0707   4.1099   4.2587
     4.2783   4.3717   4.5525   4.5718   4.6318   4.8006   5.0836   5.0896
     5.1083   5.2886   5.5702   6.1553   6.1599   6.2222   7.3322   7.5951
     8.0745

          k = 0.0833 0.2500 0.0386     band energies (ev):

  -106.7216-106.4589-106.4373 -64.2341 -64.1954 -64.0148 -64.0105 -63.9978
   -63.9753 -63.9154 -63.5380 -63.4930 -53.0833 -51.0090 -35.3616 -29.4091
   -29.2256 -29.1926 -29.1272 -27.3513 -27.3091 -27.2823 -19.8117 -19.6350
   -15.6499 -15.5936 -15.3755 -12.7133 -12.3117 -11.9293 -11.7712 -11.5813
   -11.5267 -11.1921 -11.1813 -11.0606 -10.9991 -10.9399 -10.7847 -10.5755
   -10.4353 -10.3928  -5.0313  -4.9857  -4.9231  -4.8107  -4.6984  -4.5948
     0.5341   0.6793   0.7621   0.8463   1.2126   1.2566   1.2875   1.3271
     1.4985   1.5872   1.6142   1.9401   2.0979   2.2153   2.2916   2.3216
     2.4168   2.4481   2.5770   2.6088   2.7813   2.8909   2.9605   2.9829
     3.1365   3.1907   3.2530   3.3622   3.3984   3.4874   3.5083   3.6552
     3.7206   3.7410   3.7710   3.9318   4.0604   4.1754   4.2337   4.3678
     4.4637   4.5340   4.6509   4.7338   4.8575   5.0009   5.0754   5.2280
     5.3038   5.5484   6.1522   6.1979   6.7383   6.8895   7.4786   8.5365
     8.7799

          k = 0.0833 0.4167 0.0386     band energies (ev):

  -106.7216-106.4589-106.4373 -64.2341 -64.1954 -64.0148 -64.0105 -63.9978
   -63.9753 -63.9154 -63.5380 -63.4930 -53.0831 -51.0087 -35.3574 -29.4047
   -29.2513 -29.1911 -29.1195 -27.3506 -27.3351 -27.2812 -19.7711 -19.5921
   -15.7753 -15.5690 -15.3684 -12.8478 -12.0420 -11.7824 -11.6477 -11.6068
   -11.4270 -11.2484 -11.2255 -11.0686 -10.9787 -10.9363 -10.7871 -10.4110
   -10.3972 -10.3954  -5.0159  -4.9967  -4.9275  -4.7895  -4.6760  -4.6007
     0.0892   0.1947   0.3209   0.6077   0.7173   0.7429   1.2307   1.3288
     1.4542   1.5020   1.5103   1.5139   1.8838   1.9009   1.9616   2.0401
     2.2089   2.2884   2.3821   2.4846   2.6445   2.7150   2.7390   2.7855
     2.9047   2.9343   3.0364   3.2182   3.2380   3.4834   3.5100   3.5398
     3.6722   3.7160   3.8387   3.8659   4.2001   4.2644   4.3184   4.3699
     4.6075   4.7108   4.7718   4.8065   4.9715   5.0374   5.2074   5.5127
     5.6059   5.6800   6.2224   6.2631   7.3317   7.5188   7.5453   8.5655
     9.4355

          k = 0.2500 0.2500 0.0386     band energies (ev):

  -106.7216-106.4589-106.4373 -64.2341 -64.1954 -64.0148 -64.0105 -63.9978
   -63.9753 -63.9154 -63.5380 -63.4930 -53.0831 -51.0087 -35.3574 -29.4062
   -29.2249 -29.2130 -29.1225 -27.3503 -27.3087 -27.3081 -19.7753 -19.5973
   -15.5912 -15.5770 -15.5699 -12.6355 -12.1178 -11.8249 -11.6716 -11.4848
   -11.4680 -11.2293 -11.2051 -11.1061 -11.0323 -10.8050 -10.6995 -10.6557
   -10.4425 -10.3645  -5.1977  -5.0602  -5.0586  -4.9418  -4.7771  -4.6520
     0.0834   0.4829   0.7278   0.7595   0.9843   1.0659   1.0775   1.2694
     1.3614   1.5400   1.5726   1.5974   1.6877   1.7473   1.7741   1.9638
     2.1094   2.2002   2.2861   2.4427   2.5251   2.6337   2.6596   2.8301
     2.9382   3.0767   3.1471   3.3506   3.5717   3.5831   3.6612   3.7790
     3.8791   3.9634   3.9936   4.2177   4.2804   4.3582   4.3663   4.4517
     4.5036   4.5165   4.6008   4.8274   4.9435   5.1288   5.1762   5.2247
     6.0346   6.1619   6.2393   6.6395   6.8832   7.2479   7.6852   9.1792
     9.7346

          k = 0.2500 0.4167 0.0386     band energies (ev):

  -106.7216-106.4589-106.4373 -64.2341 -64.1954 -64.0148 -64.0105 -63.9978
   -63.9753 -63.9154 -63.5380 -63.4930 -53.0829 -51.0084 -35.3532 -29.4034
   -29.2431 -29.2129 -29.1193 -27.3492 -27.3343 -27.3077 -19.7389 -19.5588
   -15.7604 -15.5674 -15.5002 -12.6316 -11.8573 -11.7940 -11.5450 -11.4113
   -11.3621 -11.2583 -11.2234 -11.1353 -10.9349 -10.7907 -10.7741 -10.4931
   -10.4253 -10.3859  -5.2767  -5.1001  -5.0546  -4.9762  -4.9732  -4.8948
    -0.3910   0.0865   0.2026   0.7330   0.7663   0.8513   0.9221   1.0439
     1.0675   1.1832   1.2011   1.2368   1.4523   1.4673   1.5648   1.7418
     2.0089   2.0758   2.2009   2.2321   2.3006   2.3359   2.5895   2.7714
     2.8145   2.8995   3.0326   3.4136   3.5681   3.6539   3.7385   3.8927
     4.0759   4.0921   4.1540   4.3152   4.3892   4.4797   4.5004   4.6042
     4.6848   4.7599   4.9116   4.9326   4.9970   5.0887   5.4968   5.6329
     6.2300   6.4010   6.5975   6.7728   7.3906   7.7107   7.7641   8.9632
     9.3077

          k = 0.4167 0.4167 0.0386     band energies (ev):

  -106.7216-106.4589-106.4373 -64.2341 -64.1954 -64.0148 -64.0105 -63.9978
   -63.9753 -63.9154 -63.5381 -63.4930 -53.0826 -51.0081 -35.3491 -29.4022
   -29.2358 -29.2333 -29.1196 -27.3479 -27.3340 -27.3335 -19.7061 -19.5249
   -15.7478 -15.7433 -15.4273 -12.3387 -11.8889 -11.7785 -11.4408 -11.3817
   -11.3200 -11.1700 -11.1242 -11.0296 -10.9200 -10.8909 -10.6630 -10.4680
   -10.4269 -10.3742  -5.4971  -5.3162  -5.2858  -5.2262  -5.1025  -5.0235
    -0.9087  -0.3205   0.1329   0.3111   0.6395   0.7599   0.7700   0.7778
     0.8135   0.8740   1.0704   1.1763   1.2013   1.2706   1.3925   1.4614
     1.6590   2.0312   2.0677   2.1258   2.2079   2.4169   2.5303   2.5751
     2.6439   2.8285   3.1248   3.5392   3.6886   3.7568   4.1394   4.1596
     4.3790   4.5071   4.5430   4.5476   4.5756   4.6769   4.7289   4.8310
     4.8604   4.9991   5.0530   5.0771   5.0899   5.2126   5.4986   5.5567
     6.2388   7.1790   7.3157   7.3576   7.4546   7.8253   8.0057   9.3499
     9.4030

          k = 0.2500 0.0833-0.0386     band energies (ev):

  -106.7216-106.4589-106.4373 -64.2341 -64.1954 -64.0148 -64.0104 -63.9978
   -63.9753 -63.9154 -63.5381 -63.4930 -53.0833 -51.0090 -35.3615 -29.4091
   -29.2260 -29.1922 -29.1272 -27.3513 -27.3097 -27.2818 -19.8110 -19.6351
   -15.6495 -15.5914 -15.3811 -12.7135 -12.3118 -11.9334 -11.7713 -11.5806
   -11.5037 -11.1948 -11.1855 -11.0982 -11.0795 -10.9397 -10.7849 -10.5753
   -10.4352 -10.3451  -5.1033  -4.9243  -4.9167  -4.8103  -4.7256  -4.5946
     0.5153   0.6673   0.7564   0.8467   1.2297   1.2589   1.3064   1.4110
     1.4920   1.5872   1.9384   2.0981   2.2233   2.2983   2.3163   2.3569
     2.4229   2.5173   2.6060   2.7662   2.8080   2.9616   3.0426   3.0880
     3.1540   3.2528   3.3742   3.3936   3.4816   3.4941   3.5592   3.6585
     3.7222   3.7733   3.8354   3.9324   4.0248   4.0700   4.2009   4.3541
     4.3742   4.4675   4.4762   4.5366   4.6503   4.8596   5.0509   5.0768
     5.2533   5.5091   5.7110   6.1995   6.7383   6.8897   7.4785   8.5344
     8.8932

          k = 0.4167 0.0833-0.0386     band energies (ev):

  -106.7216-106.4589-106.4373 -64.2341 -64.1954 -64.0148 -64.0104 -63.9978
   -63.9753 -63.9154 -63.5381 -63.4930 -53.0831 -51.0087 -35.3573 -29.4047
   -29.2517 -29.1906 -29.1195 -27.3506 -27.3356 -27.2806 -19.7698 -19.5922
   -15.7757 -15.5683 -15.3740 -12.8481 -12.0426 -11.7820 -11.6403 -11.6016
   -11.4269 -11.2758 -11.2283 -11.1121 -11.1047 -10.9360 -10.7871 -10.4109
   -10.3968 -10.3287  -5.1217  -4.9265  -4.8722  -4.7911  -4.7589  -4.6000
     0.0639   0.1956   0.2955   0.6080   0.7428   1.2313   1.3147   1.4161
     1.4901   1.5014   1.5129   1.8960   1.9041   1.9570   2.0890   2.2181
     2.2822   2.3891   2.4310   2.5807   2.6532   2.7857   2.9052   2.9681
     3.0110   3.0427   3.2221   3.2439   3.4564   3.4869   3.5028   3.5875
     3.6780   3.8368   3.8574   3.8959   4.0683   4.2346   4.2684   4.2755
     4.3717   4.5215   4.6939   4.7674   4.7964   4.9043   4.9604   5.0603
     5.2251   5.5270   5.8151   6.2226   7.3318   7.5190   7.5453   8.5657
     9.4316

          k = 0.4167 0.2500-0.0386     band energies (ev):

  -106.7216-106.4589-106.4373 -64.2341 -64.1954 -64.0148 -64.0104 -63.9978
   -63.9753 -63.9154 -63.5381 -63.4930 -53.0829 -51.0084 -35.3532 -29.4034
   -29.2435 -29.2124 -29.1194 -27.3492 -27.3348 -27.3072 -19.7382 -19.5588
   -15.7609 -15.5697 -15.4998 -12.6318 -11.8575 -11.7938 -11.5075 -11.4111
   -11.3887 -11.2593 -11.2563 -11.1391 -11.0197 -10.7903 -10.7740 -10.4924
   -10.4256 -10.3352  -5.2371  -5.1012  -5.0901  -5.0172  -4.9723  -4.8948
    -0.4019   0.0678   0.2034   0.7330   0.8514   0.9290   1.0435   1.0758
     1.1804   1.1980   1.2354   1.3997   1.4591   1.5512   1.5643   1.7290
     2.0009   2.0760   2.2004   2.2444   2.3271   2.5184   2.6035   2.7908
     2.8603   3.0280   3.0820   3.4063   3.5683   3.6572   3.7420   4.0143
     4.0899   4.0947   4.1694   4.3013   4.3800   4.4689   4.4896   4.6021
     4.6545   4.6834   4.8988   4.9196   4.9809   5.0026   5.1094   5.1578
     6.1693   6.4190   6.6064   6.7728   7.3907   7.7109   7.7628   8.9649
     9.6239

     the Fermi energy is     5.6483 ev

     total energy              =   -2128.46240825 Ry
     Harris-Foulkes estimate   =   -2128.46590304 Ry
     estimated scf accuracy    <       0.42937272 Ry

     iteration # 21     ecut=    40.00 Ry     beta=0.15
     Davidson diagonalization with overlap
     ethr =  1.62E-04,  avg # of iterations =  1.0

     negative rho (up, down):  0.328E+00 0.000E+00

     total cpu time spent up to now is     2940.1 secs

     total energy              =   -2128.45835422 Ry
     Harris-Foulkes estimate   =   -2128.46348476 Ry
     estimated scf accuracy    <       0.32173649 Ry

     iteration # 22     ecut=    40.00 Ry     beta=0.15
     Davidson diagonalization with overlap
     ethr =  1.62E-04,  avg # of iterations =  1.2

     negative rho (up, down):  0.329E+00 0.000E+00

     total cpu time spent up to now is     3072.3 secs

     total energy              =   -2128.44542016 Ry
     Harris-Foulkes estimate   =   -2128.45910663 Ry
     estimated scf accuracy    <       0.27962097 Ry

     iteration # 23     ecut=    40.00 Ry     beta=0.15
     Davidson diagonalization with overlap
     ethr =  1.44E-04,  avg # of iterations =  2.8

     negative rho (up, down):  0.325E+00 0.000E+00

     total cpu time spent up to now is     3191.4 secs

     total energy              =   -2128.44757041 Ry
     Harris-Foulkes estimate   =   -2128.44863599 Ry
     estimated scf accuracy    <       0.27118933 Ry

     iteration # 24     ecut=    40.00 Ry     beta=0.15
     Davidson diagonalization with overlap
     ethr =  1.40E-04,  avg # of iterations =  1.0

     negative rho (up, down):  0.325E+00 0.000E+00

     total cpu time spent up to now is     3297.8 secs

     total energy              =   -2128.45075493 Ry
     Harris-Foulkes estimate   =   -2128.44881219 Ry
     estimated scf accuracy    <       0.25591259 Ry

     iteration # 25     ecut=    40.00 Ry     beta=0.15
     Davidson diagonalization with overlap
     ethr =  1.32E-04,  avg # of iterations =  1.0

     negative rho (up, down):  0.317E+00 0.000E+00

     total cpu time spent up to now is     3403.6 secs

     total energy              =   -2128.42644535 Ry
     Harris-Foulkes estimate   =   -2128.45115437 Ry
     estimated scf accuracy    <       0.22649716 Ry

     iteration # 26     ecut=    40.00 Ry     beta=0.15
     Davidson diagonalization with overlap
     ethr =  1.17E-04,  avg # of iterations =  3.0

     negative rho (up, down):  0.310E+00 0.000E+00

     total cpu time spent up to now is     3513.7 secs

     total energy              =   -2128.43135557 Ry
     Harris-Foulkes estimate   =   -2128.43557774 Ry
     estimated scf accuracy    <       0.05774625 Ry

     iteration # 27     ecut=    40.00 Ry     beta=0.15
     Davidson diagonalization with overlap
     ethr =  2.98E-05,  avg # of iterations =  3.8

     negative rho (up, down):  0.310E+00 0.000E+00

     total cpu time spent up to now is     3625.5 secs

     total energy              =   -2128.43250479 Ry
     Harris-Foulkes estimate   =   -2128.43506627 Ry
     estimated scf accuracy    <       0.10018528 Ry

     iteration # 28     ecut=    40.00 Ry     beta=0.15
     Davidson diagonalization with overlap
     ethr =  2.98E-05,  avg # of iterations =  1.7

     negative rho (up, down):  0.309E+00 0.000E+00

     total cpu time spent up to now is     3741.2 secs

     total energy              =   -2128.43290539 Ry
     Harris-Foulkes estimate   =   -2128.43391864 Ry
     estimated scf accuracy    <       0.13626554 Ry

     iteration # 29     ecut=    40.00 Ry     beta=0.15
     Davidson diagonalization with overlap
     ethr =  2.98E-05,  avg # of iterations =  1.0

     negative rho (up, down):  0.312E+00 0.000E+00

     total cpu time spent up to now is     3850.3 secs

     total energy              =   -2128.43471428 Ry
     Harris-Foulkes estimate   =   -2128.43363176 Ry
     estimated scf accuracy    <       0.08973696 Ry

     iteration # 30     ecut=    40.00 Ry     beta=0.15
     Davidson diagonalization with overlap
     ethr =  2.98E-05,  avg # of iterations =  1.0

     negative rho (up, down):  0.308E+00 0.000E+00

     total cpu time spent up to now is     3963.2 secs

          k = 0.0833 0.0833 0.0386     band energies (ev):

  -107.2095-107.0790-107.0393 -64.7228 -64.6761 -64.6196 -64.6058 -64.6043
   -64.5775 -64.4020 -64.1928 -64.1122 -52.2685 -51.0876 -35.7722 -28.6246
   -28.4281 -28.4256 -28.3101 -27.4251 -27.3661 -27.3657 -20.1750 -19.9374
   -16.1385 -15.7867 -15.7780 -12.6030 -12.4296 -12.2890 -11.8913 -11.6263
   -11.6138 -11.6080 -11.5650 -11.4010 -11.2328 -10.9500 -10.8185 -10.2773
   -10.2181  -9.9030  -5.3959  -5.2531  -5.1424  -5.1141  -5.0395  -4.9249
     0.6255   0.6599   0.7199   0.8823   0.8913   0.9172   1.0264   1.7496
     1.8669   1.9001   1.9441   2.1074   2.1887   2.3021   2.3093   2.4152
     2.4240   2.4433   2.4802   2.6761   2.7221   2.7501   2.9174   2.9513
     2.9787   3.0217   3.0607   3.0878   3.1191   3.3955   3.4225   3.4880
     3.5372   3.5889   3.6082   3.6462   3.7323   3.8021   3.8231   3.8873
     3.9985   4.0251   4.0707   4.3017   4.3246   4.4607   4.5389   4.6296
     4.6949   4.7586   5.0149   6.7572   6.7772   6.8176   7.5110   7.6648
     7.8623

          k = 0.0833 0.2500 0.0386     band energies (ev):

  -107.2095-107.0790-107.0393 -64.7228 -64.6761 -64.6196 -64.6058 -64.6044
   -64.5775 -64.4020 -64.1928 -64.1122 -52.2682 -51.0873 -35.7681 -28.6204
   -28.4566 -28.4251 -28.3002 -27.4250 -27.3920 -27.3646 -20.1344 -19.8952
   -16.0630 -15.9900 -15.7720 -12.4327 -12.3285 -12.1209 -11.9359 -11.6122
   -11.5741 -11.5515 -11.5044 -11.4594 -11.2055 -10.9851 -10.9121 -10.2536
   -10.0250  -9.9397  -5.3764  -5.3294  -5.1827  -5.0689  -5.0409  -4.8526
     0.1391   0.2945   0.7400   0.8276   0.8702   0.8996   1.0061   1.0818
     1.1537   1.5068   1.7377   1.8355   1.8498   1.8855   1.9281   1.9530
     2.0680   2.2408   2.3149   2.3919   2.5322   2.5817   2.6772   2.8149
     2.8796   2.9153   2.9339   3.0163   3.0634   3.1306   3.1635   3.3617
     3.4106   3.6480   3.6863   3.7275   3.7475   3.8116   3.8719   4.0208
     4.0418   4.1630   4.1770   4.2906   4.4000   4.4614   4.6489   4.7034
     4.8044   5.0829   5.6003   6.8061   7.3548   7.4892   8.0305   8.4860
     8.5253

          k = 0.0833 0.4167 0.0386     band energies (ev):

  -107.2095-107.0790-107.0393 -64.7228 -64.6761 -64.6196 -64.6058 -64.6044
   -64.5775 -64.4020 -64.1928 -64.1122 -52.2680 -51.0870 -35.7639 -28.6160
   -28.4839 -28.4236 -28.2921 -27.4248 -27.4176 -27.3635 -20.0930 -19.8522
   -16.1713 -15.9825 -15.7650 -12.5378 -12.0456 -12.0156 -11.8523 -11.6887
   -11.5271 -11.5035 -11.4665 -11.4431 -11.1395 -10.9902 -10.9794 -10.2335
    -9.9468  -9.8714  -5.3630  -5.3432  -5.1872  -5.0502  -5.0164  -4.8573
    -0.3134  -0.1052   0.1334   0.4972   0.7921   0.8616   0.8753   0.9718
     1.0629   1.1001   1.1524   1.4674   1.4988   1.5998   1.7709   1.9260
     1.9976   2.0163   2.1651   2.2159   2.3277   2.3317   2.4219   2.5102
     2.6175   2.8006   2.8947   3.0017   3.0789   3.0968   3.1354   3.3008
     3.4260   3.5984   3.6673   3.6961   3.7793   3.8369   3.8886   4.0105
     4.0498   4.1435   4.3141   4.5182   4.5875   4.6506   4.7517   4.9324
     5.0904   5.1274   5.7231   6.8364   7.9490   8.1191   8.1346   8.5149
     9.0745

          k = 0.2500 0.2500 0.0386     band energies (ev):

  -107.2095-107.0790-107.0393 -64.7228 -64.6761 -64.6196 -64.6058 -64.6043
   -64.5775 -64.4020 -64.1928 -64.1122 -52.2680 -51.0870 -35.7639 -28.6175
   -28.4558 -28.4481 -28.2943 -27.4242 -27.3918 -27.3907 -20.0972 -19.8574
   -15.9910 -15.9869 -15.9662 -12.3441 -12.0702 -11.8962 -11.8849 -11.6134
   -11.5981 -11.5310 -11.5095 -11.4490 -11.1857 -10.9582 -10.9321 -10.1901
   -10.0331  -9.9977  -5.5426  -5.4031  -5.3175  -5.2010  -5.1238  -4.9106
    -0.3026   0.0882   0.5805   0.6188   0.8100   0.8939   0.9760   0.9846
     1.1705   1.3056   1.3381   1.3755   1.5027   1.7152   1.7764   1.8596
     1.9161   1.9465   2.0110   2.1522   2.2415   2.3896   2.4418   2.4819
     2.5488   2.6759   2.6973   3.0314   3.1274   3.2401   3.2724   3.4353
     3.5689   3.7400   3.8223   3.8895   3.9514   3.9603   4.0227   4.0459
     4.1417   4.1588   4.3065   4.3948   4.5600   4.5850   4.6425   4.7489
     5.5890   5.6022   5.7710   7.2690   7.4987   7.8624   8.2340   8.7675
     8.8019

          k = 0.2500 0.4167 0.0386     band energies (ev):

  -107.2095-107.0790-107.0393 -64.7228 -64.6761 -64.6196 -64.6058 -64.6044
   -64.5775 -64.4020 -64.1928 -64.1122 -52.2677 -51.0867 -35.7597 -28.6147
   -28.4777 -28.4475 -28.2891 -27.4235 -27.4175 -27.3904 -20.0602 -19.8188
   -16.1565 -15.9636 -15.9140 -12.3223 -11.9466 -11.7720 -11.6318 -11.6184
   -11.5673 -11.4778 -11.4675 -11.3461 -11.1855 -10.9816 -10.9377 -10.1602
   -10.0781  -9.9827  -5.6250  -5.3979  -5.3585  -5.3251  -5.2328  -5.1529
    -0.7767  -0.3162   0.1713   0.5025   0.5041   0.6120   0.7578   0.8595
     0.9101   1.0152   1.0731   1.1439   1.3304   1.3707   1.4936   1.7053
     1.7500   1.8419   1.8693   1.9148   2.1154   2.1429   2.2690   2.2996
     2.3257   2.4691   2.6998   3.0446   3.2316   3.2981   3.5252   3.6477
     3.6722   3.8266   3.8575   3.9267   4.0295   4.1832   4.2095   4.2283
     4.3185   4.4131   4.4287   4.4980   4.6405   4.7248   4.9146   5.0445
     5.6819   5.9602   6.1270   7.3990   8.0177   8.3277   8.3355   8.8978
     9.2127

          k = 0.4167 0.4167 0.0386     band energies (ev):

  -107.2095-107.0790-107.0393 -64.7228 -64.6761 -64.6196 -64.6058 -64.6043
   -64.5775 -64.4019 -64.1928 -64.1122 -52.2675 -51.0864 -35.7556 -28.6134
   -28.4721 -28.4705 -28.2861 -27.4222 -27.4174 -27.4170 -20.0268 -19.7849
   -16.1438 -16.1394 -15.8415 -12.0557 -11.8411 -11.7834 -11.5466 -11.5305
   -11.4792 -11.4609 -11.4226 -11.1960 -11.0987 -10.9706 -10.8954 -10.2446
   -10.0950 -10.0633  -5.8430  -5.6417  -5.5737  -5.4842  -5.4448  -5.2830
    -1.2905  -0.7167   0.2107   0.3177   0.3528   0.4053   0.4109   0.6479
     0.7893   0.8534   0.9072   0.9691   1.0853   1.2171   1.3571   1.4657
     1.5130   1.6469   1.6829   1.8295   2.0217   2.0732   2.1278   2.2306
     2.2629   2.4271   2.5169   3.0932   3.5441   3.6945   3.7573   3.8813
     3.8935   4.0352   4.0880   4.1433   4.2320   4.2435   4.3726   4.4259
     4.5152   4.6522   4.7155   4.7565   4.8496   4.9015   4.9142   4.9687
     5.6825   6.7559   6.8401   7.9850   8.0847   8.3997   8.6455   8.8473
     9.3229

          k = 0.2500 0.0833-0.0386     band energies (ev):

  -107.2095-107.0790-107.0393 -64.7228 -64.6761 -64.6196 -64.6058 -64.6043
   -64.5776 -64.4020 -64.1928 -64.1122 -52.2682 -51.0873 -35.7680 -28.6204
   -28.4566 -28.4251 -28.3002 -27.4250 -27.3916 -27.3650 -20.1336 -19.8953
   -16.0627 -15.9874 -15.7779 -12.4328 -12.3334 -12.1210 -11.9142 -11.7036
   -11.5759 -11.5561 -11.5045 -11.4855 -11.2055 -10.9377 -10.9123 -10.2538
   -10.0248  -9.9397  -5.4488  -5.2596  -5.1829  -5.0698  -5.0674  -4.8525
     0.1223   0.2756   0.8201   0.8429   0.8829   0.9247   1.0687   1.1381
     1.5070   1.7350   1.7941   1.8452   1.8648   1.9020   1.9412   2.0618
     2.1599   2.2789   2.4461   2.4781   2.5327   2.6971   2.8078   2.8880
     2.9137   2.9300   2.9531   3.0221   3.0651   3.1628   3.2191   3.3641
     3.4159   3.4948   3.6527   3.6958   3.7445   3.8040   3.8244   3.8738
     3.9229   4.0145   4.0362   4.1671   4.2862   4.4028   4.5307   4.6452
     4.8061   5.0064   5.1985   6.8060   7.3550   7.4893   8.0298   8.1560
     8.4845

          k = 0.4167 0.0833-0.0386     band energies (ev):

  -107.2095-107.0790-107.0393 -64.7228 -64.6761 -64.6196 -64.6058 -64.6043
   -64.5776 -64.4020 -64.1929 -64.1122 -52.2680 -51.0870 -35.7638 -28.6160
   -28.4839 -28.4236 -28.2921 -27.4248 -27.4173 -27.3639 -20.0912 -19.8523
   -16.1714 -15.9819 -15.7708 -12.5379 -12.0390 -12.0183 -11.8555 -11.7965
   -11.5520 -11.5219 -11.5095 -11.4425 -11.1394 -10.9798 -10.9218 -10.2336
    -9.9467  -9.8713  -5.4663  -5.2254  -5.1855  -5.0950  -5.0514  -4.8569
    -0.3352  -0.1283   0.4978   0.7918   0.8135   0.8735   0.9748   1.0646
     1.0960   1.1488   1.4997   1.5052   1.6828   1.7701   1.7993   1.9352
     2.0177   2.1823   2.2817   2.3513   2.4427   2.4741   2.5081   2.6096
     2.8066   2.8901   2.9024   2.9953   3.0885   3.1362   3.3008   3.3131
     3.4257   3.4933   3.6076   3.6659   3.6726   3.7273   3.8076   3.8894
     3.9814   4.0256   4.1186   4.2977   4.3661   4.5012   4.5942   4.6532
     4.7697   5.0049   5.3053   6.8363   7.9495   8.1194   8.1349   8.5151
     8.9859

          k = 0.4167 0.2500-0.0386     band energies (ev):

  -107.2095-107.0790-107.0393 -64.7228 -64.6761 -64.6196 -64.6058 -64.6043
   -64.5775 -64.4020 -64.1929 -64.1122 -52.2677 -51.0867 -35.7597 -28.6147
   -28.4777 -28.4475 -28.2891 -27.4235 -27.4171 -27.3908 -20.0593 -19.8189
   -16.1566 -15.9662 -15.9137 -12.3223 -11.9130 -11.7924 -11.6656 -11.6569
   -11.6215 -11.4782 -11.4680 -11.3457 -11.1855 -10.9379 -10.9304 -10.1603
   -10.0780  -9.9826  -5.5825  -5.4345  -5.3679  -5.3594  -5.2314  -5.1529
    -0.7876  -0.3354   0.5047   0.5068   0.6236   0.7514   0.8566   0.8612
     0.9525   1.0128   1.0732   1.1440   1.3295   1.3561   1.4930   1.7268
     1.8288   1.8772   1.9160   1.9904   2.0893   2.1431   2.2780   2.3820
     2.4613   2.4772   2.6961   3.0473   3.2452   3.4135   3.5499   3.6594
     3.6815   3.8239   3.8311   3.8978   4.0133   4.0924   4.1955   4.2029
     4.3180   4.4101   4.4292   4.4473   4.4851   4.5421   4.6779   4.7253
     5.6064   5.9765   6.1371   7.3989   8.0182   8.3276   8.3356   8.8983
     9.1813

     the Fermi energy is     5.1111 ev

     total energy              =   -2128.43209180 Ry
     Harris-Foulkes estimate   =   -2128.43714475 Ry
     estimated scf accuracy    <       0.17564890 Ry

     iteration # 31     ecut=    40.00 Ry     beta=0.15
     Davidson diagonalization with overlap
     ethr =  2.98E-05,  avg # of iterations =  1.0

     negative rho (up, down):  0.310E+00 0.000E+00

     total cpu time spent up to now is     4070.3 secs

     total energy              =   -2128.43350465 Ry
     Harris-Foulkes estimate   =   -2128.43336736 Ry
     estimated scf accuracy    <       0.06984413 Ry

     iteration # 32     ecut=    40.00 Ry     beta=0.15
     Davidson diagonalization with overlap
     ethr =  2.98E-05,  avg # of iterations =  1.0

     negative rho (up, down):  0.311E+00 0.000E+00

     total cpu time spent up to now is     4184.1 secs

     total energy              =   -2128.43558700 Ry
     Harris-Foulkes estimate   =   -2128.43444399 Ry
     estimated scf accuracy    <       0.08630330 Ry

     iteration # 33     ecut=    40.00 Ry     beta=0.15
     Davidson diagonalization with overlap
     ethr =  2.98E-05,  avg # of iterations =  1.0

     negative rho (up, down):  0.305E+00 0.000E+00

     total cpu time spent up to now is     4289.9 secs

     total energy              =   -2128.42934797 Ry
     Harris-Foulkes estimate   =   -2128.43588672 Ry
     estimated scf accuracy    <       0.12801232 Ry

     iteration # 34     ecut=    40.00 Ry     beta=0.15
     Davidson diagonalization with overlap
     ethr =  2.98E-05,  avg # of iterations =  1.0

     negative rho (up, down):  0.306E+00 0.000E+00

     total cpu time spent up to now is     4402.9 secs

     total energy              =   -2128.43039028 Ry
     Harris-Foulkes estimate   =   -2128.43170781 Ry
     estimated scf accuracy    <       0.02783502 Ry

     iteration # 35     ecut=    40.00 Ry     beta=0.15
     Davidson diagonalization with overlap
     ethr =  1.43E-05,  avg # of iterations =  3.0

     negative rho (up, down):  0.310E+00 0.000E+00

     total cpu time spent up to now is     4512.4 secs

     total energy              =   -2128.42934160 Ry
     Harris-Foulkes estimate   =   -2128.43081598 Ry
     estimated scf accuracy    <       0.01161095 Ry

     iteration # 36     ecut=    40.00 Ry     beta=0.15
     Davidson diagonalization with overlap
     ethr =  5.99E-06,  avg # of iterations =  4.8

     negative rho (up, down):  0.307E+00 0.000E+00

     total cpu time spent up to now is     4628.3 secs

     total energy              =   -2128.42763521 Ry
     Harris-Foulkes estimate   =   -2128.43093857 Ry
     estimated scf accuracy    <       0.04242319 Ry

     iteration # 37     ecut=    40.00 Ry     beta=0.15
     Davidson diagonalization with overlap
     ethr =  5.99E-06,  avg # of iterations =  6.9

     negative rho (up, down):  0.308E+00 0.000E+00

     total cpu time spent up to now is     4749.1 secs

     total energy              =   -2128.42912953 Ry
     Harris-Foulkes estimate   =   -2128.42991837 Ry
     estimated scf accuracy    <       0.01321232 Ry

     iteration # 38     ecut=    40.00 Ry     beta=0.15
     Davidson diagonalization with overlap
     ethr =  5.99E-06,  avg # of iterations =  1.0

     negative rho (up, down):  0.308E+00 0.000E+00

     total cpu time spent up to now is     4863.0 secs

     total energy              =   -2128.42919522 Ry
     Harris-Foulkes estimate   =   -2128.42938242 Ry
     estimated scf accuracy    <       0.00380045 Ry

     iteration # 39     ecut=    40.00 Ry     beta=0.15
     Davidson diagonalization with overlap
     ethr =  1.96E-06,  avg # of iterations =  4.1

     negative rho (up, down):  0.307E+00 0.000E+00

     total cpu time spent up to now is     4972.7 secs

     total energy              =   -2128.42885327 Ry
     Harris-Foulkes estimate   =   -2128.42926299 Ry
     estimated scf accuracy    <       0.00244470 Ry

     iteration # 40     ecut=    40.00 Ry     beta=0.15
     Davidson diagonalization with overlap
     ethr =  1.26E-06,  avg # of iterations =  3.2

     negative rho (up, down):  0.307E+00 0.000E+00

     total cpu time spent up to now is     5087.8 secs

          k = 0.0833 0.0833 0.0386     band energies (ev):

  -107.3864-107.2982-107.1801 -64.8725 -64.8535 -64.8494 -64.8125 -64.7197
   -64.6990 -64.5946 -64.3817 -64.2700 -52.0390 -51.1699 -36.0984 -28.4155
   -28.1863 -28.1854 -27.8651 -27.5227 -27.4301 -27.4294 -20.5356 -20.1476
   -16.4443 -16.1018 -16.0926 -12.8217 -12.1814 -12.1588 -12.0949 -11.8519
   -11.8184 -11.5884 -11.4305 -11.3070 -11.1714 -11.1129 -10.8789  -9.8427
    -9.7850  -9.5225  -5.7399  -5.6117  -5.4656  -5.3314  -5.2342  -5.1197
     0.3708   0.5051   0.5372   0.6767   0.7482   0.8247   1.0489   1.6697
     1.6866   1.9563   2.1112   2.1335   2.1798   2.2179   2.2625   2.2969
     2.3224   2.4027   2.5012   2.5677   2.6485   2.7628   2.7849   2.7985
     2.8211   2.8929   2.9535   2.9912   3.1995   3.2564   3.3131   3.3733
     3.4310   3.5162   3.6056   3.6169   3.6761   3.7545   3.8115   3.8299
     4.0295   4.0473   4.1438   4.2938   4.3166   4.3449   4.4051   4.5077
     4.5813   4.6364   4.8104   6.9635   7.0254   7.0260   7.4741   7.5137
     8.0353

          k = 0.0833 0.2500 0.0386     band energies (ev):

  -107.3864-107.2983-107.1801 -64.8725 -64.8535 -64.8494 -64.8125 -64.7197
   -64.6990 -64.5946 -64.3817 -64.2700 -52.0388 -51.1696 -36.0943 -28.4127
   -28.2120 -28.1846 -27.8562 -27.5245 -27.4536 -27.4288 -20.4954 -20.1062
   -16.3714 -16.2996 -16.0866 -12.5570 -12.2023 -12.1437 -11.9347 -11.8462
   -11.7858 -11.6459 -11.3864 -11.2523 -11.1353 -11.1316 -10.9685  -9.8213
    -9.6152  -9.5621  -5.7216  -5.6850  -5.3928  -5.3721  -5.2608  -5.0474
    -0.0693   0.1765   0.5307   0.6060   0.7618   0.8044   0.9165   1.0422
     1.3265   1.5735   1.6594   1.7073   1.7225   1.7962   1.8709   2.0298
     2.0876   2.1050   2.2347   2.3854   2.4124   2.5715   2.6246   2.6479
     2.7301   2.8336   2.8573   2.9246   2.9574   3.2217   3.2495   3.3615
     3.3851   3.4998   3.5656   3.7181   3.8105   3.8619   3.8719   3.9446
     3.9573   4.0301   4.0743   4.1898   4.2746   4.4134   4.5342   4.5590
     4.6455   4.9641   5.3980   7.0140   7.5773   7.7353   8.1945   8.2482
     8.3885

          k = 0.0833 0.4167 0.0386     band energies (ev):

  -107.3864-107.2983-107.1801 -64.8725 -64.8535 -64.8494 -64.8125 -64.7196
   -64.6990 -64.5946 -64.3817 -64.2700 -52.0385 -51.1693 -36.0901 -28.4099
   -28.2375 -28.1834 -27.8479 -27.5261 -27.4770 -27.4278 -20.4543 -20.0639
   -16.4771 -16.2936 -16.0797 -12.3103 -12.2884 -12.2053 -11.8985 -11.7533
   -11.6869 -11.6513 -11.3456 -11.2195 -11.1208 -11.0340 -11.0240  -9.7998
    -9.5796  -9.4768  -5.7140  -5.6914  -5.3767  -5.3680  -5.2385  -5.0543
    -0.5008  -0.2176  -0.0455   0.6393   0.7406   0.7762   0.8571   0.8827
     0.9501   1.0687   1.1873   1.2648   1.3826   1.4368   1.7373   1.8881
     1.9303   1.9582   2.0514   2.1457   2.3095   2.3417   2.4063   2.4756
     2.5439   2.6226   2.8167   2.8898   2.9276   3.1120   3.2015   3.3974
     3.5017   3.5682   3.6486   3.7044   3.7591   3.7813   3.8129   3.8400
     3.9166   4.0290   4.1388   4.3532   4.4910   4.5818   4.7099   4.7802
     4.9313   5.0002   5.5253   7.0449   8.1759   8.3470   8.3722   8.4881
     8.8623

          k = 0.2500 0.2500 0.0386     band energies (ev):

  -107.3864-107.2983-107.1801 -64.8725 -64.8535 -64.8494 -64.8125 -64.7197
   -64.6990 -64.5946 -64.3817 -64.2700 -52.0385 -51.1693 -36.0901 -28.4107
   -28.2112 -28.2078 -27.8482 -27.5247 -27.4553 -27.4523 -20.4585 -20.0689
   -16.3041 -16.2935 -16.2765 -12.3189 -12.1097 -12.0664 -11.8660 -11.8293
   -11.6994 -11.6864 -11.2862 -11.2759 -11.1050 -11.0888 -10.9847  -9.7912
    -9.6385  -9.6002  -5.8969  -5.7493  -5.5074  -5.4743  -5.3909  -5.1022
    -0.4924  -0.0566   0.3711   0.5300   0.6087   0.7773   0.9630   1.0248
     1.0923   1.1882   1.2478   1.6102   1.6249   1.6553   1.7006   1.7812
     1.9116   2.0110   2.0783   2.0851   2.2837   2.3117   2.3491   2.3669
     2.4405   2.6552   2.8011   2.9302   2.9365   3.0592   3.0857   3.3538
     3.5618   3.5970   3.6876   3.7063   3.8026   3.8325   3.8761   4.0862
     4.1164   4.2316   4.3130   4.3528   4.4117   4.4637   4.6054   4.6704
     5.3957   5.4066   5.6318   7.4891   7.7244   8.1086   8.4523   8.6459
     8.7350

          k = 0.2500 0.4167 0.0386     band energies (ev):

  -107.3865-107.2983-107.1801 -64.8725 -64.8535 -64.8494 -64.8125 -64.7196
   -64.6990 -64.5946 -64.3817 -64.2700 -52.0383 -51.1690 -36.0860 -28.4087
   -28.2340 -28.2071 -27.8405 -27.5250 -27.4784 -27.4541 -20.4217 -20.0309
   -16.4629 -16.2734 -16.2271 -12.1901 -12.0771 -11.9861 -11.8464 -11.7760
   -11.6925 -11.4163 -11.2520 -11.1710 -11.1127 -11.0794 -10.9764  -9.7626
    -9.7010  -9.5941  -5.9801  -5.7443  -5.6725  -5.5457  -5.4233  -5.3417
    -0.9552  -0.4549  -0.0037   0.3160   0.5082   0.5597   0.6889   0.7533
     0.8508   0.9596   1.1745   1.1921   1.2829   1.5146   1.5649   1.6502
     1.7086   1.7714   1.9096   1.9533   2.0374   2.1122   2.1213   2.2144
     2.2784   2.4014   2.7158   2.9503   3.0257   3.1057   3.4253   3.4890
     3.6512   3.6956   3.7776   3.8396   3.9640   3.9711   4.0413   4.1770
     4.1987   4.3103   4.4932   4.5339   4.5583   4.7577   4.7791   4.8851
     5.4813   5.7744   5.9913   7.6210   8.2496   8.5448   8.5786   8.8636
     9.0574

          k = 0.4167 0.4167 0.0386     band energies (ev):

  -107.3865-107.2983-107.1801 -64.8725 -64.8535 -64.8494 -64.8125 -64.7197
   -64.6990 -64.5946 -64.3818 -64.2700 -52.0380 -51.1687 -36.0819 -28.4075
   -28.2309 -28.2301 -27.8329 -27.5238 -27.4804 -27.4796 -20.3887 -19.9974
   -16.4501 -16.4458 -16.1572 -12.0776 -12.0120 -11.8173 -11.7468 -11.6894
   -11.6381 -11.2737 -11.2226 -11.1028 -11.0991 -10.9744 -10.9299  -9.8397
    -9.7286  -9.6922  -6.2003  -5.9856  -5.7913  -5.7588  -5.6696  -5.4727
    -1.4641  -0.8596   0.0379   0.1252   0.1619   0.3227   0.6611   0.6860
     0.6953   0.8625   0.8980   1.1325   1.1795   1.2428   1.3937   1.4574
     1.5423   1.6150   1.6347   1.6777   1.9100   1.9517   2.0423   2.1588
     2.2879   2.3786   2.4724   2.9352   3.3593   3.4773   3.7244   3.7962
     3.8731   3.8912   3.9934   4.0092   4.0309   4.0960   4.1994   4.2486
     4.3610   4.4219   4.7298   4.7541   4.8067   4.8305   4.9571   5.0196
     5.4821   6.5462   6.7135   8.2129   8.3169   8.5929   8.6197   8.8502
     8.8908

          k = 0.2500 0.0833-0.0386     band energies (ev):

  -107.3864-107.2982-107.1801 -64.8725 -64.8535 -64.8494 -64.8125 -64.7197
   -64.6990 -64.5946 -64.3817 -64.2700 -52.0388 -51.1696 -36.0942 -28.4127
   -28.2121 -28.1845 -27.8562 -27.5245 -27.4537 -27.4287 -20.4947 -20.1062
   -16.3710 -16.2960 -16.0935 -12.5609 -12.2025 -12.1221 -11.9349 -11.9174
   -11.8139 -11.6596 -11.3868 -11.2521 -11.1345 -11.0959 -10.9687  -9.8211
    -9.6154  -9.5620  -5.7946  -5.6136  -5.4220  -5.3723  -5.2603  -5.0474
    -0.0860   0.1573   0.5831   0.6571   0.7677   0.8869   1.0397   1.3267
     1.5619   1.6349   1.6646   1.7186   1.7722   1.8634   2.0143   2.0313
     2.1095   2.2478   2.2971   2.4131   2.5758   2.6287   2.6548   2.7262
     2.7498   2.8304   2.8597   2.9577   3.0169   3.2205   3.2488   3.3022
     3.3629   3.3873   3.5528   3.6316   3.7141   3.7609   3.8081   3.8696
     3.8753   3.9519   4.0299   4.0768   4.1922   4.2877   4.4183   4.5365
     4.6545   4.8525   5.0316   7.0138   7.5774   7.7355   8.0079   8.2497
     8.4583

          k = 0.4167 0.0833-0.0386     band energies (ev):

  -107.3864-107.2982-107.1801 -64.8726 -64.8535 -64.8494 -64.8125 -64.7197
   -64.6990 -64.5946 -64.3818 -64.2700 -52.0385 -51.1693 -36.0900 -28.4099
   -28.2376 -28.1833 -27.8479 -27.5261 -27.4770 -27.4277 -20.4529 -20.0640
   -16.4761 -16.2930 -16.0866 -12.3018 -12.2904 -12.2122 -11.9983 -11.7884
   -11.7164 -11.6552 -11.3464 -11.2190 -11.0768 -11.0333 -11.0233  -9.7995
    -9.5794  -9.4771  -5.8123  -5.5716  -5.4545  -5.3748  -5.2395  -5.0541
    -0.5215  -0.2435   0.5915   0.7402   0.7812   0.8491   0.8830   0.9510
     1.0736   1.1877   1.2866   1.3999   1.4874   1.6722   1.7506   1.9550
     2.0493   2.1344   2.2473   2.3003   2.3560   2.4040   2.4745   2.5429
     2.6337   2.7048   2.8015   2.9279   3.1031   3.1147   3.2110   3.2898
     3.4066   3.4666   3.5478   3.6375   3.7036   3.7538   3.7675   3.8191
     3.8580   3.9079   4.0321   4.1261   4.1496   4.3298   4.5107   4.5833
     4.7103   4.8498   5.1422   7.0448   8.1760   8.3471   8.3722   8.4881
     8.8334

          k = 0.4167 0.2500-0.0386     band energies (ev):

  -107.3865-107.2982-107.1801 -64.8725 -64.8535 -64.8494 -64.8125 -64.7197
   -64.6990 -64.5946 -64.3818 -64.2700 -52.0383 -51.1690 -36.0860 -28.4087
   -28.2341 -28.2070 -27.8405 -27.5250 -27.4785 -27.4540 -20.4210 -20.0310
   -16.4619 -16.2771 -16.2268 -12.1585 -12.0779 -12.0181 -11.8863 -11.8385
   -11.6866 -11.4165 -11.2529 -11.1707 -11.0779 -11.0773 -10.9767  -9.7622
    -9.7008  -9.5944  -5.9362  -5.7811  -5.7170  -5.5465  -5.4219  -5.3417
    -0.9659  -0.4737   0.3221   0.5168   0.5513   0.6491   0.7534   0.7676
     0.8494   0.9605   1.1683   1.1833   1.2837   1.5652   1.6687   1.6914
     1.7481   1.7868   1.9100   1.9354   2.0295   2.1964   2.2171   2.2584
     2.2879   2.4017   2.7137   2.9590   3.0360   3.2354   3.4389   3.5019
     3.6118   3.6708   3.7661   3.8312   3.8746   3.9690   4.0330   4.1596
     4.2394   4.2762   4.3010   4.3600   4.4928   4.5398   4.5760   4.7800
     5.4060   5.7914   6.0005   7.6209   8.2499   8.5448   8.5791   8.8632
     8.9823

     the Fermi energy is     4.9980 ev

     total energy              =   -2128.42884839 Ry
     Harris-Foulkes estimate   =   -2128.42901966 Ry
     estimated scf accuracy    <       0.00236142 Ry

     iteration # 41     ecut=    40.00 Ry     beta=0.15
     Davidson diagonalization with overlap
     ethr =  1.22E-06,  avg # of iterations =  1.0

     negative rho (up, down):  0.307E+00 0.000E+00

     total cpu time spent up to now is     5200.0 secs

     total energy              =   -2128.42886014 Ry
     Harris-Foulkes estimate   =   -2128.42897727 Ry
     estimated scf accuracy    <       0.00143286 Ry

     iteration # 42     ecut=    40.00 Ry     beta=0.15
     Davidson diagonalization with overlap
     ethr =  7.39E-07,  avg # of iterations =  1.0

     negative rho (up, down):  0.307E+00 0.000E+00

     total cpu time spent up to now is     5308.5 secs

     total energy              =   -2128.42888321 Ry
     Harris-Foulkes estimate   =   -2128.42890453 Ry
     estimated scf accuracy    <       0.00045547 Ry

     iteration # 43     ecut=    40.00 Ry     beta=0.15
     Davidson diagonalization with overlap
     ethr =  2.35E-07,  avg # of iterations =  1.0

     negative rho (up, down):  0.307E+00 0.000E+00

     total cpu time spent up to now is     5416.8 secs

     total energy              =   -2128.42887348 Ry
     Harris-Foulkes estimate   =   -2128.42889405 Ry
     estimated scf accuracy    <       0.00020092 Ry

     iteration # 44     ecut=    40.00 Ry     beta=0.15
     Davidson diagonalization with overlap
     ethr =  1.04E-07,  avg # of iterations =  1.7

     negative rho (up, down):  0.307E+00 0.000E+00

     total cpu time spent up to now is     5530.2 secs

     total energy              =   -2128.42886294 Ry
     Harris-Foulkes estimate   =   -2128.42887987 Ry
     estimated scf accuracy    <       0.00014295 Ry

     iteration # 45     ecut=    40.00 Ry     beta=0.15
     Davidson diagonalization with overlap
     ethr =  7.37E-08,  avg # of iterations =  2.2

     negative rho (up, down):  0.307E+00 0.000E+00

     total cpu time spent up to now is     5642.5 secs

     total energy              =   -2128.42886399 Ry
     Harris-Foulkes estimate   =   -2128.42887430 Ry
     estimated scf accuracy    <       0.00012846 Ry

     iteration # 46     ecut=    40.00 Ry     beta=0.15
     Davidson diagonalization with overlap
     ethr =  6.62E-08,  avg # of iterations =  1.1

     negative rho (up, down):  0.307E+00 0.000E+00

     total cpu time spent up to now is     5752.5 secs

     total energy              =   -2128.42885764 Ry
     Harris-Foulkes estimate   =   -2128.42886819 Ry
     estimated scf accuracy    <       0.00005156 Ry

     iteration # 47     ecut=    40.00 Ry     beta=0.15
     Davidson diagonalization with overlap
     ethr =  2.66E-08,  avg # of iterations =  3.4

     negative rho (up, down):  0.307E+00 0.000E+00

     total cpu time spent up to now is     5859.5 secs

     total energy              =   -2128.42885843 Ry
     Harris-Foulkes estimate   =   -2128.42886052 Ry
     estimated scf accuracy    <       0.00002061 Ry

     iteration # 48     ecut=    40.00 Ry     beta=0.15
     Davidson diagonalization with overlap
     ethr =  1.06E-08,  avg # of iterations =  1.3

     negative rho (up, down):  0.307E+00 0.000E+00

     total cpu time spent up to now is     5949.2 secs

     End of self-consistent calculation

          k = 0.0833 0.0833 0.0386 ( 11523 PWs)   bands (ev):

  -107.3735-107.2750-107.1619 -64.8657 -64.8406 -64.8254 -64.7852 -64.7076
   -64.6896 -64.5743 -64.3662 -64.2466 -52.0149 -51.1255 -36.0700 -28.3895
   -28.1650 -28.1642 -27.7712 -27.4723 -27.3875 -27.3866 -20.5560 -20.1092
   -16.4187 -16.0724 -16.0634 -12.8057 -12.1416 -12.1284 -12.0740 -11.8365
   -11.8118 -11.5703 -11.3939 -11.2825 -11.1295 -11.0982 -10.8466  -9.7542
    -9.6970  -9.4394  -5.7541  -5.6287  -5.4825  -5.2918  -5.1958  -5.0812
     0.3837   0.5185   0.5537   0.6907   0.7630   0.8431   1.0841   1.6887
     1.7052   1.9918   2.1314   2.1574   2.2146   2.2308   2.2870   2.3268
     2.3388   2.4393   2.5199   2.5836   2.6679   2.7820   2.8053   2.8223
     2.8378   2.9138   2.9713   3.0067   3.2193   3.2743   3.3297   3.3938
     3.4499   3.5441   3.6285   3.6432   3.6939   3.7865   3.8427   3.8479
     4.0533   4.0756   4.1636   4.3224   4.3264   4.3825   4.4259   4.5202
     4.6114   4.6623   4.8290   6.9832   7.0435   7.0457   7.5179   7.5336
     8.0465

          k = 0.0833 0.2500 0.0386 ( 11500 PWs)   bands (ev):

  -107.3735-107.2750-107.1619 -64.8657 -64.8406 -64.8254 -64.7852 -64.7076
   -64.6896 -64.5743 -64.3662 -64.2466 -52.0146 -51.1252 -36.0659 -28.3869
   -28.1904 -28.1634 -27.7623 -27.4745 -27.4106 -27.3859 -20.5159 -20.0678
   -16.3457 -16.2707 -16.0574 -12.5412 -12.1624 -12.1270 -11.8983 -11.8339
   -11.7776 -11.6273 -11.3508 -11.2261 -11.1145 -11.0923 -10.9356  -9.7330
    -9.5317  -9.4793  -5.7362  -5.7012  -5.4097  -5.3328  -5.2223  -5.0090
    -0.0566   0.1895   0.5441   0.6188   0.7774   0.8258   0.9382   1.0757
     1.3594   1.5917   1.6779   1.7216   1.7508   1.8206   1.8943   2.0611
     2.1007   2.1387   2.2573   2.4114   2.4419   2.5859   2.6500   2.6713
     2.7477   2.8491   2.8771   2.9455   2.9853   3.2398   3.2743   3.3894
     3.4061   3.5160   3.5800   3.7502   3.8370   3.8761   3.8986   3.9597
     3.9860   4.0597   4.0883   4.2246   4.2894   4.4453   4.5526   4.5766
     4.6660   4.9813   5.4174   7.0335   7.5953   7.7553   8.2375   8.2565
     8.4082

          k = 0.0833 0.4167 0.0386 ( 11446 PWs)   bands (ev):

  -107.3735-107.2750-107.1620 -64.8657 -64.8406 -64.8254 -64.7852 -64.7075
   -64.6896 -64.5743 -64.3662 -64.2466 -52.0144 -51.1249 -36.0617 -28.3843
   -28.2156 -28.1622 -27.7542 -27.4766 -27.4335 -27.3850 -20.4749 -20.0255
   -16.4486 -16.2676 -16.0505 -12.2927 -12.2513 -12.1865 -11.8857 -11.7440
   -11.6654 -11.6235 -11.3105 -11.1839 -11.1016 -10.9968 -10.9887  -9.7111
    -9.4984  -9.3964  -5.7295  -5.7065  -5.3855  -5.3369  -5.2005  -5.0158
    -0.4885  -0.2063  -0.0235   0.6543   0.7626   0.7894   0.8766   0.9000
     0.9876   1.0983   1.2262   1.2782   1.3977   1.4551   1.7558   1.9082
     1.9425   1.9888   2.0862   2.1672   2.3311   2.3702   2.4316   2.5049
     2.5763   2.6429   2.8332   2.9089   2.9470   3.1380   3.2221   3.4159
     3.5215   3.5925   3.6708   3.7169   3.7947   3.8144   3.8240   3.8703
     3.9264   4.0630   4.1520   4.3718   4.5158   4.5928   4.7445   4.7992
     4.9513   5.0145   5.5459   7.0644   8.1900   8.3623   8.3932   8.5303
     8.9051

          k = 0.2500 0.2500 0.0386 ( 11480 PWs)   bands (ev):

  -107.3735-107.2750-107.1620 -64.8657 -64.8406 -64.8254 -64.7852 -64.7076
   -64.6896 -64.5743 -64.3662 -64.2466 -52.0144 -51.1249 -36.0617 -28.3850
   -28.1896 -28.1867 -27.7540 -27.4750 -27.4127 -27.4092 -20.4791 -20.0305
   -16.2777 -16.2652 -16.2476 -12.3042 -12.0717 -12.0445 -11.8526 -11.8234
   -11.6669 -11.6631 -11.2509 -11.2430 -11.0880 -11.0503 -10.9511  -9.7081
    -9.5549  -9.5165  -5.9129  -5.7641  -5.4908  -5.4690  -5.3512  -5.0640
    -0.4791  -0.0424   0.3816   0.5412   0.6225   0.7995   0.9781   1.0571
     1.1059   1.2157   1.2733   1.6389   1.6505   1.6739   1.7251   1.8099
     1.9514   2.0371   2.0987   2.1201   2.3032   2.3337   2.3723   2.3876
     2.4777   2.6773   2.8263   2.9450   2.9567   3.0777   3.1058   3.3703
     3.5722   3.6147   3.7142   3.7225   3.8149   3.8467   3.8953   4.1169
     4.1453   4.2532   4.3525   4.3602   4.4468   4.4818   4.6398   4.6969
     5.4110   5.4221   5.6453   7.5043   7.7447   8.1283   8.4593   8.6658
     8.7769

          k = 0.2500 0.4167 0.0386 ( 11449 PWs)   bands (ev):

  -107.3735-107.2750-107.1620 -64.8657 -64.8406 -64.8254 -64.7852 -64.7075
   -64.6896 -64.5743 -64.3662 -64.2466 -52.0141 -51.1246 -36.0576 -28.3831
   -28.2125 -28.1859 -27.7459 -27.4755 -27.4354 -27.4112 -20.4424 -19.9925
   -16.4343 -16.2447 -16.2009 -12.1769 -12.0355 -11.9674 -11.8302 -11.7675
   -11.6779 -11.3846 -11.2156 -11.1380 -11.0936 -11.0351 -10.9429  -9.6803
    -9.6173  -9.5138  -5.9957  -5.7592  -5.6885  -5.5075  -5.3836  -5.3034
    -0.9419  -0.4421   0.0194   0.3258   0.5196   0.5713   0.7040   0.7740
     0.8662   0.9991   1.2022   1.2209   1.3193   1.5348   1.5936   1.6668
     1.7374   1.8027   1.9443   1.9809   2.0685   2.1270   2.1427   2.2388
     2.3000   2.4280   2.7367   2.9726   3.0404   3.1252   3.4428   3.5089
     3.6659   3.7134   3.8024   3.8526   3.9750   3.9989   4.0565   4.1844
     4.2258   4.3319   4.5350   4.5638   4.5883   4.7769   4.8139   4.9048
     5.5027   5.7857   6.0047   7.6376   8.2684   8.5529   8.5995   8.9064
     9.0999

          k = 0.4167 0.4167 0.0386 ( 11432 PWs)   bands (ev):

  -107.3735-107.2750-107.1620 -64.8657 -64.8406 -64.8253 -64.7851 -64.7076
   -64.6896 -64.5742 -64.3663 -64.2466 -52.0139 -51.1243 -36.0535 -28.3819
   -28.2097 -28.2090 -27.7374 -27.4744 -27.4378 -27.4368 -20.4095 -19.9590
   -16.4216 -16.4173 -16.1308 -12.0635 -11.9958 -11.7781 -11.7344 -11.6786
   -11.6198 -11.2328 -11.1880 -11.0839 -11.0604 -10.9389 -10.8967  -9.7524
    -9.6509  -9.6137  -6.2157  -6.0006  -5.8063  -5.7205  -5.6314  -5.4330
    -1.4507  -0.8467   0.0616   0.1379   0.1709   0.3318   0.6813   0.7009
     0.7107   0.9057   0.9179   1.1624   1.2155   1.2865   1.4121   1.4751
     1.5741   1.6370   1.6732   1.7108   1.9286   1.9692   2.0634   2.1851
     2.3030   2.4061   2.4986   2.9559   3.3797   3.4942   3.7327   3.8164
     3.8890   3.9101   4.0176   4.0364   4.0503   4.1102   4.2085   4.2678
     4.3766   4.4317   4.7631   4.7740   4.8263   4.8643   4.9999   5.0544
     5.5045   6.5578   6.7278   8.2277   8.3372   8.6023   8.6337   8.8687
     8.9117

          k = 0.2500 0.0833-0.0386 ( 11500 PWs)   bands (ev):

  -107.3735-107.2750-107.1619 -64.8657 -64.8405 -64.8254 -64.7852 -64.7076
   -64.6896 -64.5743 -64.3663 -64.2466 -52.0146 -51.1252 -36.0658 -28.3869
   -28.1904 -28.1634 -27.7623 -27.4745 -27.4103 -27.3862 -20.5152 -20.0678
   -16.3453 -16.2673 -16.0641 -12.5452 -12.1623 -12.1052 -11.9099 -11.8983
   -11.7999 -11.6402 -11.3510 -11.2261 -11.0919 -11.0806 -10.9358  -9.7329
    -9.5317  -9.4792  -5.8092  -5.6301  -5.4388  -5.3329  -5.2217  -5.0090
    -0.0748   0.1719   0.5956   0.6701   0.7823   0.9066   1.0736   1.3594
     1.5789   1.6511   1.6807   1.7456   1.7972   1.8826   2.0344   2.0618
     2.1433   2.2740   2.3207   2.4445   2.5913   2.6548   2.6776   2.7446
     2.7697   2.8470   2.8788   2.9860   3.0378   3.2386   3.2741   3.3232
     3.3913   3.4078   3.5643   3.6491   3.7456   3.7796   3.8342   3.8861
     3.9017   3.9853   4.0599   4.0884   4.2272   4.2966   4.4498   4.5518
     4.6762   4.8708   5.0484   7.0334   7.5954   7.7553   8.0285   8.2377
     8.2582

          k = 0.4167 0.0833-0.0386 ( 11446 PWs)   bands (ev):

  -107.3735-107.2750-107.1620 -64.8657 -64.8405 -64.8254 -64.7852 -64.7076
   -64.6896 -64.5743 -64.3663 -64.2466 -52.0144 -51.1249 -36.0617 -28.3843
   -28.2156 -28.1622 -27.7541 -27.4766 -27.4332 -27.3853 -20.4735 -20.0256
   -16.4477 -16.2670 -16.0572 -12.2824 -12.2541 -12.1954 -11.9892 -11.7716
   -11.6955 -11.6250 -11.3109 -11.1837 -11.0610 -10.9968 -10.9882  -9.7111
    -9.4983  -9.3965  -5.8271  -5.5874  -5.4717  -5.3352  -5.2014  -5.0157
    -0.5111  -0.2310   0.6041   0.7623   0.7947   0.8684   0.8984   0.9880
     1.1030   1.2261   1.2991   1.4140   1.5031   1.6890   1.7705   1.9877
     2.0843   2.1516   2.2736   2.3218   2.3824   2.4309   2.5042   2.5749
     2.6542   2.7268   2.8174   2.9466   3.1233   3.1406   3.2311   3.3126
     3.4250   3.4859   3.5719   3.6620   3.7155   3.7869   3.8003   3.8457
     3.8841   3.9196   4.0659   4.1390   4.1603   4.3486   4.5351   4.5946
     4.7438   4.8668   5.1569   7.0643   8.1901   8.3623   8.3932   8.5301
     8.8556

          k = 0.4167 0.2500-0.0386 ( 11449 PWs)   bands (ev):

  -107.3735-107.2750-107.1620 -64.8657 -64.8405 -64.8254 -64.7852 -64.7076
   -64.6896 -64.5743 -64.3663 -64.2466 -52.0141 -51.1246 -36.0576 -28.3831
   -28.2125 -28.1859 -27.7459 -27.4755 -27.4351 -27.4115 -20.4417 -19.9925
   -16.4334 -16.2482 -16.2005 -12.1439 -12.0378 -12.0016 -11.8760 -11.8226
   -11.6684 -11.3847 -11.2160 -11.1379 -11.0605 -11.0343 -10.9431  -9.6802
    -9.6173  -9.5139  -5.9521  -5.7961  -5.7327  -5.5083  -5.3822  -5.3035
    -0.9531  -0.4606   0.3327   0.5271   0.5627   0.6620   0.7740   0.7915
     0.8646   0.9994   1.1886   1.2188   1.3198   1.5943   1.6874   1.7186
     1.7730   1.8125   1.9455   1.9628   2.0636   2.2127   2.2392   2.2811
     2.3092   2.4280   2.7345   2.9816   3.0511   3.2554   3.4564   3.5205
     3.6281   3.6859   3.7915   3.8440   3.8867   3.9987   4.0488   4.1819
     4.2516   4.2962   4.3247   4.3776   4.5348   4.5722   4.6022   4.8143
     5.4259   5.8028   6.0138   7.6375   8.2685   8.5528   8.5996   8.9058
     9.0002

     the Fermi energy is     5.0214 ev

!    total energy              =   -2128.42884971 Ry
     Harris-Foulkes estimate   =   -2128.42885913 Ry
     estimated scf accuracy    <       0.00001363 Ry

     convergence has been achieved in  48 iterations

     Forces acting on atoms (Ry/au):


     negative rho (up, down):  0.307E+00 0.000E+00
     atom    1 type  1   force =     0.00000000    0.00000000   -0.01798435
     atom    2 type  1   force =     0.00000000    0.00000000    0.02081490
     atom    3 type  2   force =     0.00000000    0.00000000   -0.01067200
     atom    4 type  3   force =     0.00000000    0.00000000   -0.01200571
     atom    5 type  3   force =     0.00000000    0.00000000    0.00094789
     atom    6 type  3   force =     0.00000000    0.00000000   -0.00519163
     atom    7 type  4   force =     0.00000000    0.00000000    0.05059454
     atom    8 type  4   force =     0.00000000    0.00000000   -0.02706045
     atom    9 type  4   force =     0.00000000    0.00000000   -0.08893382
     atom   10 type  4   force =     0.00000000    0.00000000    0.01425620
     atom   11 type  4   force =     0.00000000    0.00000000    0.00020937
     atom   12 type  4   force =     0.00000000    0.00000000   -0.02188977
     atom   13 type  4   force =     0.00000000    0.00000000   -0.02704659
     atom   14 type  4   force =     0.00000000    0.00000000   -0.02188677
     atom   15 type  4   force =     0.00000000    0.00000000   -0.02698654
     atom   16 type  4   force =     0.00000000    0.00000000    0.01076723
     atom   17 type  4   force =     0.00000000    0.00000000    0.00019234
     atom   18 type  4   force =     0.00000000    0.00000000    0.01970610
[...]

     iteration #  5     ecut=    40.00 Ry     beta=0.15
     Davidson diagonalization with overlap
     ethr =  1.42E-07,  avg # of iterations =  1.9

     negative rho (up, down):  0.304E+00 0.000E+00

     total cpu time spent up to now is   130153.4 secs

     total energy              =   -2128.46870534 Ry
     Harris-Foulkes estimate   =   -2128.46870889 Ry
     estimated scf accuracy    <       0.00005419 Ry

     iteration #  6     ecut=    40.00 Ry     beta=0.15
     Davidson diagonalization with overlap
     ethr =  2.79E-08,  avg # of iterations =  1.4

     negative rho (up, down):  0.304E+00 0.000E+00

     total cpu time spent up to now is   130281.0 secs

     total energy              =   -2128.46869930 Ry
     Harris-Foulkes estimate   =   -2128.46870645 Ry
     estimated scf accuracy    <       0.00004558 Ry

     iteration #  7     ecut=    40.00 Ry     beta=0.15
     Davidson diagonalization with overlap
     ethr =  2.35E-08,  avg # of iterations =  2.1

     negative rho (up, down):  0.304E+00 0.000E+00

     total cpu time spent up to now is   130399.0 secs

     total energy              =   -2128.46869981 Ry
     Harris-Foulkes estimate   =   -2128.46870159 Ry
     estimated scf accuracy    <       0.00002469 Ry

     iteration #  8     ecut=    40.00 Ry     beta=0.15
     Davidson diagonalization with overlap
     ethr =  1.27E-08,  avg # of iterations =  2.1

     negative rho (up, down):  0.305E+00 0.000E+00

     total cpu time spent up to now is   130498.1 secs

     End of self-consistent calculation

          k = 0.0833 0.0833 0.0386 ( 11523 PWs)   bands (ev):

  -107.6160-107.4698-107.2621 -65.0897 -65.0598 -65.0203 -64.9776 -64.8462
   -64.8017 -64.7982 -64.5701 -64.3488 -51.6854 -51.5580 -36.1049 -28.0624
   -27.9935 -27.9309 -27.9278 -27.8737 -27.7366 -27.7334 -20.8218 -20.6799
   -16.4774 -16.1189 -16.1103 -12.9207 -12.4394 -12.2075 -12.0710 -12.0423
   -11.9319 -11.7004 -11.5408 -11.4885 -11.4724 -11.4359 -11.0863  -9.9015
    -9.8500  -9.5547  -6.0202  -5.9094  -5.8520  -5.7723  -5.7595  -5.6548
     0.1913   0.3681   0.4217   0.4438   0.6157   0.6817   0.8493   1.5552
     1.5872   1.6400   1.7906   1.8029   1.8829   1.9883   2.0317   2.1685
     2.2595   2.4115   2.4414   2.4444   2.5464   2.5708   2.5907   2.6274
     2.6444   2.6675   2.7172   2.8302   2.9402   3.0948   3.1073   3.2269
     3.2753   3.2950   3.3593   3.3822   3.5094   3.5142   3.6055   3.6313
     3.8987   3.9391   4.0136   4.0685   4.1098   4.2041   4.2641   4.3316
     4.4021   4.4990   4.7645   7.0156   7.3423   7.3493   7.4079   7.4345
     8.0741

          k = 0.0833 0.2500 0.0386 ( 11500 PWs)   bands (ev):

  -107.6160-107.4698-107.2621 -65.0897 -65.0599 -65.0203 -64.9776 -64.8461
   -64.8017 -64.7982 -64.5701 -64.3488 -51.6851 -51.5577 -36.1006 -28.0484
   -27.9922 -27.9619 -27.9276 -27.8835 -27.7483 -27.7339 -20.7809 -20.6390
   -16.4019 -16.3308 -16.1045 -12.6510 -12.3964 -12.2673 -12.0738 -11.9703
   -11.8863 -11.7591 -11.5826 -11.4669 -11.4044 -11.4039 -11.0443  -9.8792
    -9.6887  -9.5945  -5.9972  -5.9681  -5.8797  -5.7994  -5.6761  -5.5756
    -0.2146   0.0331   0.2599   0.5259   0.6078   0.6277   0.7201   0.8453
     1.0790   1.3538   1.4971   1.5648   1.5937   1.6808   1.7630   1.8057
     1.8331   1.8589   2.0322   2.2039   2.2812   2.3462   2.4686   2.4898
     2.5710   2.6696   2.6813   2.7261   2.7575   3.1006   3.1159   3.2360
     3.3107   3.3689   3.4408   3.5556   3.5978   3.6674   3.7042   3.7322
     3.7880   3.8372   3.8543   3.9275   4.1707   4.2007   4.3233   4.3417
     4.4469   4.8144   5.2443   7.4510   7.7432   7.8342   8.0436   8.2282
     8.3107

          k = 0.0833 0.4167 0.0386 ( 11446 PWs)   bands (ev):

  -107.6160-107.4698-107.2621 -65.0897 -65.0599 -65.0203 -64.9776 -64.8461
   -64.8017 -64.7982 -64.5701 -64.3488 -51.6847 -51.5574 -36.0963 -28.0305
   -27.9941 -27.9909 -27.9259 -27.8995 -27.7578 -27.7343 -20.7391 -20.5973
   -16.5221 -16.3179 -16.0973 -12.4679 -12.4357 -12.3028 -12.1466 -11.9145
   -11.7987 -11.7615 -11.5822 -11.4212 -11.3491 -11.3125 -10.9669  -9.8581
    -9.6134  -9.5541  -5.9740  -5.9573  -5.8727  -5.7677  -5.6556  -5.5844
    -0.6481  -0.3559  -0.2086   0.2994   0.6005   0.6348   0.6560   0.7427
     0.8376   1.0181   1.0807   1.1472   1.2349   1.2620   1.5273   1.5889
     1.6732   1.6835   1.7890   1.9622   2.0556   2.1092   2.2200   2.2907
     2.4946   2.6162   2.6426   2.6822   2.7867   3.0318   3.1502   3.2314
     3.3829   3.3996   3.4378   3.5274   3.5454   3.5964   3.6016   3.6759
     3.7342   3.9287   4.0275   4.2122   4.2893   4.3734   4.4096   4.4645
     4.7259   4.8430   5.2586   7.5033   8.2466   8.3919   8.4362   8.6805
     8.7798

          k = 0.2500 0.2500 0.0386 ( 11480 PWs)   bands (ev):

  -107.6160-107.4698-107.2621 -65.0897 -65.0598 -65.0203 -64.9776 -64.8461
   -64.8017 -64.7982 -64.5702 -64.3488 -51.6847 -51.5574 -36.0964 -28.0381
   -27.9910 -27.9626 -27.9520 -27.8847 -27.7600 -27.7454 -20.7436 -20.6024
   -16.3397 -16.3156 -16.3051 -12.4189 -12.2945 -12.2014 -12.0760 -11.9167
   -11.8058 -11.8012 -11.5751 -11.4451 -11.3822 -11.3065 -11.0235  -9.8422
    -9.6912  -9.6558  -6.2039  -6.0581  -6.0127  -5.8875  -5.7405  -5.6278
    -0.6279  -0.1981   0.2506   0.2857   0.4176   0.6224   0.7900   0.8527
     0.9339   0.9847   1.0875   1.3744   1.4226   1.4914   1.5142   1.7180
     1.7934   1.9065   1.9598   1.9872   2.0415   2.1131   2.1709   2.1904
     2.3614   2.5580   2.5678   2.7221   2.8473   2.8757   2.9202   3.2079
     3.3817   3.4286   3.5098   3.5458   3.6169   3.7057   3.7518   3.8614
     3.8957   3.9503   4.0228   4.0402   4.2354   4.2826   4.4120   4.5974
     5.2331   5.2790   5.5093   7.7836   7.9975   8.0987   8.3682   8.4392
     8.4639

          k = 0.2500 0.4167 0.0386 ( 11449 PWs)   bands (ev):

  -107.6160-107.4698-107.2622 -65.0897 -65.0599 -65.0203 -64.9776 -64.8461
   -64.8017 -64.7982 -64.5702 -64.3488 -51.6844 -51.5571 -36.0921 -28.0271
   -27.9898 -27.9858 -27.9517 -27.8908 -27.7692 -27.7566 -20.7064 -20.5652
   -16.5071 -16.3015 -16.2482 -12.3215 -12.2515 -12.1039 -12.0301 -11.9221
   -11.8084 -11.6722 -11.4920 -11.4043 -11.3438 -11.1697 -10.9925  -9.8177
    -9.7350  -9.6603  -6.2760  -6.0964  -6.0079  -5.9571  -5.9134  -5.8735
    -1.0851  -0.5870  -0.1744   0.1806   0.3437   0.4116   0.4415   0.6049
     0.7212   0.9698   0.9919   1.0428   1.1314   1.3398   1.3830   1.4724
     1.5370   1.6348   1.7901   1.8830   1.8890   1.9451   1.9989   2.0857
     2.1502   2.2248   2.4452   2.7353   2.8778   2.9238   3.3001   3.3527
     3.4849   3.5206   3.5626   3.7132   3.7334   3.7396   3.8782   3.9306
     4.0102   4.1468   4.2283   4.2908   4.3801   4.4475   4.6597   4.7459
     5.1725   5.6524   5.8707   7.9284   8.4673   8.5262   8.5717   8.8120
     8.8426

          k = 0.4167 0.4167 0.0386 ( 11432 PWs)   bands (ev):

  -107.6160-107.4698-107.2622 -65.0897 -65.0598 -65.0203 -64.9776 -64.8461
   -64.8018 -64.7982 -64.5702 -64.3488 -51.6841 -51.5568 -36.0879 -28.0244
   -27.9886 -27.9784 -27.9761 -27.8796 -27.7832 -27.7781 -20.6733 -20.5326
   -16.4925 -16.4824 -16.1754 -12.1754 -12.0939 -12.0521 -12.0053 -11.7940
   -11.7154 -11.5781 -11.4331 -11.4116 -11.3372 -11.0033 -10.9421  -9.8828
    -9.7735  -9.7422  -6.5117  -6.3216  -6.2904  -6.2264  -6.0452  -5.9408
    -1.5861  -0.9720  -0.1330  -0.0093   0.0152   0.2301   0.3544   0.4733
     0.5693   0.9172   0.9429   0.9982   1.0262   1.2309   1.2466   1.3031
     1.4245   1.4832   1.5170   1.5564   1.7611   1.8001   1.8710   1.8936
     2.1457   2.2616   2.2649   2.7485   3.1486   3.3493   3.5862   3.6066
     3.7280   3.7534   3.7854   3.8346   3.9046   3.9397   3.9726   4.0663
     4.1231   4.2138   4.3301   4.4052   4.4584   4.5765   4.7014   5.1605
     5.1739   6.4374   6.5630   8.1302   8.5112   8.5999   8.8217   8.8670
     8.8834

          k = 0.2500 0.0833-0.0386 ( 11500 PWs)   bands (ev):

  -107.6160-107.4698-107.2621 -65.0897 -65.0598 -65.0203 -64.9776 -64.8461
   -64.8018 -64.7982 -64.5702 -64.3488 -51.6851 -51.5577 -36.1006 -28.0484
   -27.9922 -27.9622 -27.9274 -27.8835 -27.7484 -27.7339 -20.7802 -20.6390
   -16.4013 -16.3247 -16.1099 -12.6585 -12.3962 -12.2736 -12.1113 -11.9702
   -11.8821 -11.7784 -11.5806 -11.4665 -11.4119 -11.4048 -11.0442  -9.8793
    -9.6886  -9.5945  -6.0581  -5.9115  -5.8789  -5.8004  -5.6948  -5.5763
    -0.2248   0.0279   0.2969   0.5293   0.6232   0.7124   0.8435   1.0796
     1.4640   1.5077   1.5486   1.5945   1.6674   1.6947   1.7642   1.7991
     1.8578   1.8768   2.1091   2.2958   2.3592   2.4612   2.4902   2.5441
     2.5789   2.6891   2.7199   2.7572   2.8026   2.9255   3.1000   3.1179
     3.2329   3.3607   3.4048   3.4561   3.5396   3.5871   3.6074   3.6974
     3.7124   3.7725   3.8459   3.8573   4.0736   4.1714   4.2004   4.3220
     4.4490   4.7524   4.9416   7.4517   7.7432   7.8318   7.8463   8.0436
     8.2286

          k = 0.4167 0.0833-0.0386 ( 11446 PWs)   bands (ev):

  -107.6160-107.4698-107.2621 -65.0897 -65.0598 -65.0203 -64.9776 -64.8461
   -64.8018 -64.7981 -64.5702 -64.3488 -51.6847 -51.5574 -36.0964 -28.0305
   -27.9943 -27.9909 -27.9257 -27.8996 -27.7578 -27.7343 -20.7376 -20.5972
   -16.5130 -16.3195 -16.1028 -12.4683 -12.4484 -12.3319 -12.1932 -11.9104
   -11.8101 -11.7764 -11.5792 -11.4216 -11.3869 -11.3128 -10.9669  -9.8582
    -9.6135  -9.5539  -6.0721  -5.8761  -5.8376  -5.7641  -5.7267  -5.5867
    -0.6640  -0.3490   0.2273   0.6006   0.6340   0.6698   0.7507   0.8431
     1.0193   1.0813   1.1816   1.2632   1.3862   1.4835   1.5517   1.6677
     1.6932   1.7843   1.9061   2.0629   2.1286   2.2445   2.2802   2.4910
     2.5358   2.6267   2.6441   2.7903   2.8674   2.9716   3.0286   3.1500
     3.2142   3.2376   3.4147   3.4402   3.5152   3.5761   3.5825   3.6406
     3.6965   3.7327   3.9275   3.9684   4.0083   4.1998   4.2884   4.3728
     4.4494   4.7428   5.0601   7.5040   8.2470   8.3919   8.4346   8.6663
     8.6805

          k = 0.4167 0.2500-0.0386 ( 11449 PWs)   bands (ev):

  -107.6160-107.4698-107.2622 -65.0897 -65.0598 -65.0203 -64.9776 -64.8461
   -64.8018 -64.7982 -64.5702 -64.3488 -51.6844 -51.5571 -36.0922 -28.0271
   -27.9898 -27.9860 -27.9515 -27.8908 -27.7692 -27.7566 -20.7057 -20.5652
   -16.4981 -16.3104 -16.2475 -12.3177 -12.2535 -12.1150 -12.0745 -11.9445
   -11.7984 -11.6655 -11.4910 -11.4049 -11.3585 -11.1697 -10.9925  -9.8179
    -9.7350  -9.6602  -6.2324  -6.0945  -6.0464  -5.9914  -5.9159  -5.8738
    -1.0936  -0.5901   0.1664   0.2987   0.4170   0.4376   0.6041   0.6309
     0.7188   0.9662   0.9809   1.0427   1.1311   1.3675   1.4706   1.5027
     1.5858   1.6386   1.7636   1.8819   1.9841   2.0441   2.0700   2.0971
     2.1272   2.2199   2.4416   2.7375   2.9190   3.0324   3.3141   3.3799
     3.4348   3.4878   3.5381   3.6293   3.7137   3.7345   3.8207   3.9035
     3.9915   4.0496   4.1123   4.1473   4.2223   4.3603   4.3830   4.7459
     5.2267   5.6713   5.8627   7.9289   8.4675   8.5248   8.5713   8.6371
     8.8424

     the Fermi energy is     4.8733 ev

!    total energy              =   -2128.46868879 Ry
     Harris-Foulkes estimate   =   -2128.46870076 Ry
     estimated scf accuracy    <       0.00001433 Ry

     convergence has been achieved in   8 iterations

     Forces acting on atoms (Ry/au):


     negative rho (up, down):  0.305E+00 0.000E+00
     atom    1 type  1   force =     0.00000000    0.00000000   -0.00057548
     atom    2 type  1   force =     0.00000000    0.00000000    0.00059797
     atom    3 type  2   force =     0.00000000    0.00000000    0.00195777
     atom    4 type  3   force =     0.00000000    0.00000000   -0.00677510
     atom    5 type  3   force =     0.00000000    0.00000000    0.00519394
     atom    6 type  3   force =     0.00000000    0.00000000   -0.00233298
     atom    7 type  4   force =     0.00000000    0.00000000    0.00066007
     atom    8 type  4   force =     0.00000000    0.00000000   -0.00268099
     atom    9 type  4   force =     0.00000000    0.00000000   -0.00000607
     atom   10 type  4   force =     0.00000000    0.00000000    0.00105666
     atom   11 type  4   force =     0.00000000    0.00000000    0.00090518
     atom   12 type  4   force =     0.00000000    0.00000000    0.00021359
     atom   13 type  4   force =     0.00000000    0.00000000    0.00070360
     atom   14 type  4   force =     0.00000000    0.00000000    0.00020614
     atom   15 type  4   force =     0.00000000    0.00000000    0.00063103
     atom   16 type  4   force =     0.00000000    0.00000000    0.00100619
     atom   17 type  4   force =     0.00000000    0.00000000    0.00062233
     atom   18 type  4   force =     0.00000000    0.00000000   -0.00168105
     atom   19 type  5   force =     0.00000000    0.00000000   -0.00017523
     atom   20 type  6   force =     0.00000000    0.00000000    0.00062685
     atom   21 type  6   force =     0.00000000    0.00000000   -0.00015444

     Total force =     0.009902     Total SCF correction =     0.022726
     SCF correction compared to forces is large: reduce conv_thr to get better values


     entering subroutine stress ...


     negative rho (up, down):  0.305E+00 0.000E+00
          total   stress  (Ry/bohr**3)                   (kbar)     P=  -31.33
  -0.00021286   0.00000000   0.00000000        -31.31      0.00      0.00
   0.00000000  -0.00036368   0.00000000          0.00    -53.50      0.00
   0.00000000   0.00000000  -0.00006232          0.00      0.00     -9.17


     Entering Dynamics;  it =   100   time =  0.09583 pico-seconds

  new lattice vectors (alat unit) :
   1.000000000   0.000000000   0.000000000
   0.000000000   1.000000000   0.000000000
   0.000000000   0.000000000   6.482692452
  new unit-cell volume =   2683.8778 (a.u.)^3
  new positions in cryst coord
Ba       0.500000000   0.500000000   0.235868219
Ba       0.500000000   0.500000000   0.528439468
Y        0.500000000   0.500000000   0.381754355
Cu       0.000000000   0.000000000   0.605329127
Cu       0.000000000   0.000000000   0.316537374
Cu       0.000000000   0.000000000   0.447979527
O        0.000000000   0.000000000   0.229173382
O        0.000000000   0.000000000   0.531968787
O        0.000000000   0.000000000   0.073442905
O        0.500000000   0.000000000   0.328089367
O        0.500000000   0.000000000   0.438767680
O        0.500000000   0.000000000  -0.002889899
O        0.500000000   0.000000000   0.150767140
O        0.000000000   0.500000000  -0.002890896
O        0.000000000   0.500000000   0.150758696
O        0.000000000   0.500000000   0.327311522
O        0.000000000   0.500000000   0.437946594
O        0.000000000   0.500000000   0.611789973
Sr       0.500000000   0.500000000   0.074353237
Ti       0.000000000   0.000000000   0.002742989
Ti       0.000000000   0.000000000   0.156218001
  new positions in cart coord (alat unit)
Ba       0.500000000   0.500000000   1.529061124
Ba       0.500000000   0.500000000   3.425710550
Y        0.500000000   0.500000000   2.474796075
Cu       0.000000000   0.000000000   3.924162563
Cu       0.000000000   0.000000000   2.052014444
Cu       0.000000000   0.000000000   2.904113500
O        0.000000000   0.000000000   1.485660552
O        0.000000000   0.000000000   3.448590042
O        0.000000000   0.000000000   0.476107766
O        0.500000000   0.000000000   2.126902461
O        0.500000000   0.000000000   2.844395928
O        0.500000000   0.000000000  -0.018734328
O        0.500000000   0.000000000   0.977376999
O        0.000000000   0.500000000  -0.018740792
O        0.000000000   0.500000000   0.977322260
O        0.000000000   0.500000000   2.121859932
O        0.000000000   0.500000000   2.839073077
O        0.000000000   0.500000000   3.966046238
Sr       0.500000000   0.500000000   0.482009170
Ti       0.000000000   0.000000000   0.017781954
Ti       0.000000000   0.000000000   1.012713256

     Ekin =     0.00030653 Ry    T =   25.4 K  Etot = -2128.46838226
     new unit-cell volume =   2683.87784 a.u.^3 (   397.70966 Ang^3 )

CELL_PARAMETERS (alat=  7.45307987)
   1.000000000   0.000000000   0.000000000
   0.000000000   1.000000000   0.000000000
   0.000000000   0.000000000   6.482692452

ATOMIC_POSITIONS (crystal)
Ba       0.500000000   0.500000000   0.235868219    0   0   1
Ba       0.500000000   0.500000000   0.528439468    0   0   1
Y        0.500000000   0.500000000   0.381754355    0   0   1
Cu       0.000000000   0.000000000   0.605329127    0   0   1
Cu       0.000000000   0.000000000   0.316537374    0   0   1
Cu       0.000000000   0.000000000   0.447979527    0   0   1
O        0.000000000   0.000000000   0.229173382    0   0   1
O        0.000000000   0.000000000   0.531968787    0   0   1
O        0.000000000   0.000000000   0.073442905    0   0   1
O        0.500000000   0.000000000   0.328089367    0   0   1
O        0.500000000   0.000000000   0.438767680    0   0   1
O        0.500000000   0.000000000  -0.002889899    0   0   1
O        0.500000000   0.000000000   0.150767140    0   0   1
O        0.000000000   0.500000000  -0.002890896    0   0   1
O        0.000000000   0.500000000   0.150758696    0   0   1
O        0.000000000   0.500000000   0.327311522    0   0   1
O        0.000000000   0.500000000   0.437946594    0   0   1
O        0.000000000   0.500000000   0.611789973    0   0   1
Sr       0.500000000   0.500000000   0.074353237    0   0   1
Ti       0.000000000   0.000000000   0.002742989    0   0   1
Ti       0.000000000   0.000000000   0.156218001    0   0   1



     Parrinello-Rahman Damped Cell Dynamics Minimization: 100 iterations completed, stopping

     Writing output data file test_1_2.save
 
     init_run     :    132.08s CPU    114.89s WALL (       1 calls)
     electrons    : 158176.70s CPU 100982.51s WALL (     100 calls)
     update_pot   :   3671.13s CPU   3585.47s WALL (      99 calls)
     forces       :  10046.80s CPU   6955.47s WALL (     100 calls)
     stress       :  26530.84s CPU  16990.53s WALL (     100 calls)

     Called by init_run:
     wfcinit      :     58.81s CPU     48.48s WALL (       1 calls)
     potinit      :     13.80s CPU     13.89s WALL (       1 calls)

     Called by electrons:
     c_bands      :  66267.51s CPU  47926.31s WALL (     950 calls)
     sum_band     :  32355.92s CPU  18126.24s WALL (     950 calls)
     v_of_rho     :    981.08s CPU    543.40s WALL (    1050 calls)
     newd         :  40279.72s CPU  23463.40s WALL (    1050 calls)
     mix_rho      :  20962.77s CPU  11934.27s WALL (     950 calls)

     Called by c_bands:
     init_us_2    :   1463.17s CPU    669.58s WALL (    6303 calls)
     cegterg      :  64403.14s CPU  46640.48s WALL (    2850 calls)

     Called by *egterg:
     h_psi        :  44975.00s CPU  27124.32s WALL (    7782 calls)
     s_psi        :   7321.61s CPU   7335.52s WALL (    7782 calls)
     g_psi        :     45.80s CPU     46.28s WALL (    4929 calls)
     cdiaghg      :    511.57s CPU    443.10s WALL (    7482 calls)

     Called by h_psi:
     add_vuspsi   :   7499.29s CPU   7488.98s WALL (    7782 calls)

     General routines
     calbec       :  14571.15s CPU  12913.54s WALL (   11232 calls)
     fft          :   1223.86s CPU    600.64s WALL (   18999 calls)
     ffts         :  11547.54s CPU   6378.57s WALL (  272246 calls)
     fftw         :  31937.31s CPU  14319.71s WALL ( 1579752 calls)
     interpolate  :    258.22s CPU    139.79s WALL (    2000 calls)
     davcio       :    461.11s CPU    440.69s WALL (    9156 calls)
 
     Parallel routines
     fft_scatter  :   9462.42s CPU   4591.79s WALL ( 1870997 calls)
 
     PWSCF        :     2d    8h15m CPU        1d   12h19m WALL

 
   This run was terminated on:  23:58:41  10Dec2013            

=------------------------------------------------------------------------------=
   JOB DONE.
=------------------------------------------------------------------------------=
