
     Program PWSCF v.5.0.2 (svn rev. 9656) starts on  7Dec2013 at 14:29:34 

     This program is part of the open-source Quantum ESPRESSO suite
     for quantum simulation of materials; please cite
         "P. Giannozzi et al., J. Phys.:Condens. Matter 21 395502 (2009);
          URL http://www.quantum-espresso.org", 
     in publications or presentations arising from this work. More details at
     http://www.quantum-espresso.org/quote.php

     Parallel version (MPI & OpenMP), running on      64 processor cores
     Number of MPI processes:                 8
     Threads/MPI process:                     8
     K-points division:     npool     =       8

     Current dimensions of program PWSCF are:
     Max number of different atomic species (ntypx) = 10
     Max number of k-points (npk) =  40000
     Max angular momentum in pseudopotentials (lmaxx) =  3
     Reading input from YBCO_STO.pw.in

     Subspace diagonalization in iterative solution of the eigenvalue problem:
     a serial algorithm will be used

     Message from routine setup:
     Dynamics, you should have no symmetries
 
     G-vector sticks info
     --------------------
     sticks:   dense  smooth     PW     G-vecs:    dense   smooth      PW
     Sum         885     709    213               128253    91639   14365
 

     Title: 
     YBCO_STO_PBE_from_GBRV                                                     


     bravais-lattice index     =            8
     lattice parameter (alat)  =       7.4531  a.u.
     unit-cell volume          =    2684.5675 (a.u.)^3
     number of atoms/cell      =           21
     number of atomic types    =            6
     number of electrons       =       194.00
     number of Kohn-Sham states=          105
     kinetic-energy cutoff     =      40.0000  Ry
     charge density cutoff     =     200.0000  Ry
     convergence threshold     =      5.0E-04
     mixing beta               =       0.1500
     number of iterations used =            8  local-TF  mixing
     Exchange-correlation      = SLA  PW   PBE  PBE ( 1 4 3 4 0)
     EXX-fraction              =        0.00
     nstep                     =          100


     celldm(1)=   7.453080  celldm(2)=   1.000000  celldm(3)=   6.484358
     celldm(4)=   0.000000  celldm(5)=   0.000000  celldm(6)=   0.000000

     crystal axes: (cart. coord. in units of alat)
               a(1) = (   1.000000   0.000000   0.000000 )  
               a(2) = (   0.000000   1.000000   0.000000 )  
               a(3) = (   0.000000   0.000000   6.484358 )  

     reciprocal axes: (cart. coord. in units 2 pi/alat)
               b(1) = (  1.000000  0.000000  0.000000 )  
               b(2) = (  0.000000  1.000000  0.000000 )  
               b(3) = (  0.000000  0.000000  0.154217 )  


     PseudoPot. # 1 for Ba read from file:
     ../pbe/ba_pbe_v1.uspp.F.UPF
     MD5 check sum: 3380f63c22b3abf76d74aa74136bb909
     Pseudo is Ultrasoft + core correction, Zval = 10.0
     Generated by new atomic code, or converted to UPF format
     Using radial grid of  907 points,  7 beta functions with: 
                l(1) =   0
                l(2) =   0
                l(3) =   1
                l(4) =   1
                l(5) =   2
                l(6) =   2
                l(7) =   3
     Q(r) pseudized with  6 coefficients,  rinner =    1.700   1.700   1.700
                                                       1.700   1.700   1.700
                                                       1.700

     PseudoPot. # 2 for Y  read from file:
     ../pbe/y_pbe_v1.uspp.F.UPF
     MD5 check sum: 2cf71db95cafeb975fc457bd7f14888e
     Pseudo is Ultrasoft + core correction, Zval = 11.0
     Generated by new atomic code, or converted to UPF format
     Using radial grid of  885 points,  6 beta functions with: 
                l(1) =   0
                l(2) =   0
                l(3) =   1
                l(4) =   1
                l(5) =   2
                l(6) =   2
     Q(r) pseudized with  6 coefficients,  rinner =    1.200   1.200   1.200
                                                       1.200   1.200

     PseudoPot. # 3 for Cu read from file:
     ../pbe/cu_pbe_v1.uspp.F.UPF
     MD5 check sum: dd7df6c276b3c1af358798b42dbd4e5a
     Pseudo is Ultrasoft + core correction, Zval = 19.0
     Generated by new atomic code, or converted to UPF format
     Using radial grid of  867 points,  6 beta functions with: 
                l(1) =   0
                l(2) =   0
                l(3) =   1
                l(4) =   1
                l(5) =   2
                l(6) =   2
     Q(r) pseudized with  8 coefficients,  rinner =    1.100   1.100   1.100
                                                       1.100   1.100

     PseudoPot. # 4 for O  read from file:
     ../pbe/o_pbe_v1.01.uspp.F.UPF
     MD5 check sum: 2bcb18d16ea4b960afae9ec6d52f22d2
     Pseudo is Ultrasoft + core correction, Zval =  6.0
     Generated by new atomic code, or converted to UPF format
     Using radial grid of  737 points,  5 beta functions with: 
                l(1) =   0
                l(2) =   0
                l(3) =   1
                l(4) =   1
                l(5) =   2
     Q(r) pseudized with  8 coefficients,  rinner =    0.900   0.900   0.900
                                                       0.900   0.900

     PseudoPot. # 5 for Sr read from file:
     ../pbe/sr_pbe_v1.uspp.F.UPF
     MD5 check sum: 6b418c05fbe9db5448babca5e47b7a5b
     Pseudo is Ultrasoft + core correction, Zval = 10.0
     Generated by new atomic code, or converted to UPF format
     Using radial grid of  883 points,  6 beta functions with: 
                l(1) =   0
                l(2) =   0
                l(3) =   1
                l(4) =   1
                l(5) =   2
                l(6) =   2
     Q(r) pseudized with  6 coefficients,  rinner =    1.400   1.400   1.400
                                                       1.400   1.400

     PseudoPot. # 6 for Ti read from file:
     ../pbe/ti_pbe_v1.uspp.F.UPF
     MD5 check sum: bcc8f6961b3b91f0cac3ca967d22d0fb
     Pseudo is Ultrasoft + core correction, Zval = 12.0
     Generated by new atomic code, or converted to UPF format
     Using radial grid of  851 points,  6 beta functions with: 
                l(1) =   0
                l(2) =   0
                l(3) =   1
                l(4) =   1
                l(5) =   2
                l(6) =   2
     Q(r) pseudized with  6 coefficients,  rinner =    1.000   1.000   1.000
                                                       1.000   1.000

     atomic species   valence    mass     pseudopotential
        Ba            10.00   137.32700     Ba( 1.00)
        Y             11.00    88.90585     Y ( 1.00)
        Cu            19.00    63.54600     Cu( 1.00)
        O              6.00    15.99940     O ( 1.00)
        Sr            10.00    87.62000     Sr( 1.00)
        Ti            12.00    47.88000     Ti( 1.00)

      cell mass =  70.63890 AMU 

      4 Sym. Ops. (no inversion) found



   Cartesian axes

     site n.     atom                  positions (alat units)
         1           Ba  tau(   1) = (   0.5000000   0.5000000   1.5396411  )
         2           Ba  tau(   2) = (   0.5000000   0.5000000   3.4092178  )
         3           Y   tau(   3) = (   0.5000000   0.5000000   2.4744293  )
         4           Cu  tau(   4) = (   0.0000000   0.0000000   3.9488613  )
         5           Cu  tau(   5) = (   0.0000000   0.0000000   2.0447808  )
         6           Cu  tau(   6) = (   0.0000000   0.0000000   2.9040781  )
         7           O   tau(   7) = (   0.0000000   0.0000000   1.4694585  )
         8           O   tau(   8) = (   0.0000000   0.0000000   3.4794008  )
         9           O   tau(   9) = (   0.0000000   0.0000000   0.5000000  )
        10           O   tau(  10) = (   0.5000000   0.0000000   2.1099506  )
        11           O   tau(  11) = (   0.5000000   0.0000000   2.8389085  )
        12           O   tau(  12) = (   0.5000000   0.0000000   0.0000000  )
        13           O   tau(  13) = (   0.5000000   0.0000000   1.0000001  )
        14           O   tau(  14) = (   0.0000000   0.5000000   0.0000000  )
        15           O   tau(  15) = (   0.0000000   0.5000000   1.0000001  )
        16           O   tau(  16) = (   0.0000000   0.5000000   2.1126047  )
        17           O   tau(  17) = (   0.0000000   0.5000000   2.8362545  )
        18           O   tau(  18) = (   0.0000000   0.5000000   3.9488613  )
        19           Sr  tau(  19) = (   0.5000000   0.5000000   0.5000000  )
        20           Ti  tau(  20) = (   0.0000000   0.0000000   0.0000000  )
        21           Ti  tau(  21) = (   0.0000000   0.0000000   1.0000001  )

     number of k points=     9  gaussian smearing, width (Ry)=  0.0100
                       cart. coord. in units 2pi/alat
        k(    1) = (   0.0833333   0.0833333   0.0385543), wk =   0.2222222
        k(    2) = (   0.0833333   0.2500000   0.0385543), wk =   0.2222222
        k(    3) = (   0.0833333   0.4166667   0.0385543), wk =   0.2222222
        k(    4) = (   0.2500000   0.2500000   0.0385543), wk =   0.2222222
        k(    5) = (   0.2500000   0.4166667   0.0385543), wk =   0.2222222
        k(    6) = (   0.4166667   0.4166667   0.0385543), wk =   0.2222222
        k(    7) = (   0.2500000   0.0833333  -0.0385543), wk =   0.2222222
        k(    8) = (   0.4166667   0.0833333  -0.0385543), wk =   0.2222222
        k(    9) = (   0.4166667   0.2500000  -0.0385543), wk =   0.2222222

     Dense  grid:   128253 G-vectors     FFT dimensions: (  36,  36, 225)

     Smooth grid:    91639 G-vectors     FFT dimensions: (  32,  32, 200)

     Largest allocated arrays     est. size (Mb)     dimensions
        Kohn-Sham Wavefunctions        18.46 Mb     (  11523,  105)
        NL pseudopotentials            58.37 Mb     (  11523,  332)
        Each V/rho on FFT grid          4.45 Mb     ( 291600)
        Each G-vector array             0.98 Mb     ( 128253)
        G-vector shells                 0.98 Mb     ( 128253)
     Largest temporary arrays     est. size (Mb)     dimensions
        Auxiliary wavefunctions        73.85 Mb     (  11523,  420)
        Each subspace H/S matrix        2.69 Mb     ( 420, 420)
        Each <psi_i|beta_j> matrix      0.53 Mb     (    332,  105)
        Arrays for rho mixing          35.60 Mb     ( 291600,   8)
     writing wfc files to a dedicated directory

     Check: negative/imaginary core charge=   -0.000022    0.000000

     Initial potential from superposition of free atoms
     Check: negative starting charge=   -0.318837

     starting charge  188.93177, renormalised to  194.00000

     negative rho (up, down):  0.327E+00 0.000E+00
     Starting wfc are  159 randomized atomic wfcs

     total cpu time spent up to now is      118.2 secs

     per-process dynamical memory:   245.0 Mb

     Self-consistent Calculation

     iteration #  1     ecut=    40.00 Ry     beta=0.15
     Davidson diagonalization with overlap
     ethr =  1.00E-02,  avg # of iterations =  5.0

     negative rho (up, down):  0.322E+00 0.000E+00

     total cpu time spent up to now is      274.1 secs

     total energy              =   -2126.18320321 Ry
     Harris-Foulkes estimate   =   -2137.57711821 Ry
     estimated scf accuracy    <     652.50554759 Ry

     iteration #  2     ecut=    40.00 Ry     beta=0.15
     Davidson diagonalization with overlap
     ethr =  1.00E-02,  avg # of iterations =  4.9

     negative rho (up, down):  0.319E+00 0.000E+00

     total cpu time spent up to now is      420.5 secs

     total energy              =   -2127.99637124 Ry
     Harris-Foulkes estimate   =   -2131.19406781 Ry
     estimated scf accuracy    <     210.29924852 Ry

     iteration #  3     ecut=    40.00 Ry     beta=0.15
     Davidson diagonalization with overlap
     ethr =  1.00E-02,  avg # of iterations =  1.1

     negative rho (up, down):  0.316E+00 0.000E+00

     total cpu time spent up to now is      557.1 secs

     total energy              =   -2129.31661098 Ry
     Harris-Foulkes estimate   =   -2129.72552135 Ry
     estimated scf accuracy    <      12.56039034 Ry

     iteration #  4     ecut=    40.00 Ry     beta=0.15
     Davidson diagonalization with overlap
     ethr =  6.47E-03,  avg # of iterations =  1.8

     negative rho (up, down):  0.311E+00 0.000E+00

     total cpu time spent up to now is      713.9 secs

     total energy              =   -2129.18702552 Ry
     Harris-Foulkes estimate   =   -2129.68499463 Ry
     estimated scf accuracy    <       7.74746249 Ry

     iteration #  5     ecut=    40.00 Ry     beta=0.15
     Davidson diagonalization with overlap
     ethr =  3.99E-03,  avg # of iterations =  1.2

     negative rho (up, down):  0.309E+00 0.000E+00

     total cpu time spent up to now is      849.1 secs

     total energy              =   -2128.47180932 Ry
     Harris-Foulkes estimate   =   -2129.25079521 Ry
     estimated scf accuracy    <       5.26573901 Ry

     iteration #  6     ecut=    40.00 Ry     beta=0.15
     Davidson diagonalization with overlap
     ethr =  2.71E-03,  avg # of iterations =  3.9

     negative rho (up, down):  0.308E+00 0.000E+00

     total cpu time spent up to now is      993.0 secs

     total energy              =   -2128.71530945 Ry
     Harris-Foulkes estimate   =   -2129.15194358 Ry
     estimated scf accuracy    <      76.80713374 Ry

     iteration #  7     ecut=    40.00 Ry     beta=0.15
     Davidson diagonalization with overlap
     ethr =  2.71E-03,  avg # of iterations =  1.0

     negative rho (up, down):  0.309E+00 0.000E+00

     total cpu time spent up to now is     1126.4 secs

     total energy              =   -2128.36898998 Ry
     Harris-Foulkes estimate   =   -2128.85975499 Ry
     estimated scf accuracy    <      18.75187428 Ry

     iteration #  8     ecut=    40.00 Ry     beta=0.15
     Davidson diagonalization with overlap
     ethr =  2.71E-03,  avg # of iterations =  1.0
