
     Program PWSCF v.5.0.2 (svn rev. 9656) starts on  7Dec2013 at 17:18:21 

     This program is part of the open-source Quantum ESPRESSO suite
     for quantum simulation of materials; please cite
         "P. Giannozzi et al., J. Phys.:Condens. Matter 21 395502 (2009);
          URL http://www.quantum-espresso.org", 
     in publications or presentations arising from this work. More details at
     http://www.quantum-espresso.org/quote.php

     Parallel version (MPI & OpenMP), running on      64 processor cores
     Number of MPI processes:                 8
     Threads/MPI process:                     8
     K-points division:     npool     =       8

     Current dimensions of program PWSCF are:
     Max number of different atomic species (ntypx) = 10
     Max number of k-points (npk) =  40000
     Max angular momentum in pseudopotentials (lmaxx) =  3
     Reading input from YBCO_STO.pw.in

     Subspace diagonalization in iterative solution of the eigenvalue problem:
     a serial algorithm will be used

     Message from routine setup:
     Dynamics, you should have no symmetries
 
     G-vector sticks info
     --------------------
     sticks:   dense  smooth     PW     G-vecs:    dense   smooth      PW
     Sum         885     709    213               128253    91639   14365
 

     Title: 
     YBCO_STO_PBE_from_GBRV                                                     


     bravais-lattice index     =            8
     lattice parameter (alat)  =       7.4531  a.u.
     unit-cell volume          =    2684.5675 (a.u.)^3
     number of atoms/cell      =           21
     number of atomic types    =            6
     number of electrons       =       194.00
     number of Kohn-Sham states=          105
     kinetic-energy cutoff     =      40.0000  Ry
     charge density cutoff     =     200.0000  Ry
     convergence threshold     =      2.0E-05
     mixing beta               =       0.1500
     number of iterations used =            8  local-TF  mixing
     Exchange-correlation      = SLA  PW   PBE  PBE ( 1 4 3 4 0)
     EXX-fraction              =        0.00
     nstep                     =          100


     celldm(1)=   7.453080  celldm(2)=   1.000000  celldm(3)=   6.484358
     celldm(4)=   0.000000  celldm(5)=   0.000000  celldm(6)=   0.000000

     crystal axes: (cart. coord. in units of alat)
               a(1) = (   1.000000   0.000000   0.000000 )  
               a(2) = (   0.000000   1.000000   0.000000 )  
               a(3) = (   0.000000   0.000000   6.484358 )  

     reciprocal axes: (cart. coord. in units 2 pi/alat)
               b(1) = (  1.000000  0.000000  0.000000 )  
               b(2) = (  0.000000  1.000000  0.000000 )  
               b(3) = (  0.000000  0.000000  0.154217 )  


     PseudoPot. # 1 for Ba read from file:
     ../pbe/ba_pbe_v1.uspp.F.UPF
     MD5 check sum: 3380f63c22b3abf76d74aa74136bb909
     Pseudo is Ultrasoft + core correction, Zval = 10.0
     Generated by new atomic code, or converted to UPF format
     Using radial grid of  907 points,  7 beta functions with: 
                l(1) =   0
                l(2) =   0
                l(3) =   1
                l(4) =   1
                l(5) =   2
                l(6) =   2
                l(7) =   3
     Q(r) pseudized with  6 coefficients,  rinner =    1.700   1.700   1.700
                                                       1.700   1.700   1.700
                                                       1.700

     PseudoPot. # 2 for Y  read from file:
     ../pbe/y_pbe_v1.uspp.F.UPF
     MD5 check sum: 2cf71db95cafeb975fc457bd7f14888e
     Pseudo is Ultrasoft + core correction, Zval = 11.0
     Generated by new atomic code, or converted to UPF format
     Using radial grid of  885 points,  6 beta functions with: 
                l(1) =   0
                l(2) =   0
                l(3) =   1
                l(4) =   1
                l(5) =   2
                l(6) =   2
     Q(r) pseudized with  6 coefficients,  rinner =    1.200   1.200   1.200
                                                       1.200   1.200

     PseudoPot. # 3 for Cu read from file:
     ../pbe/cu_pbe_v1.uspp.F.UPF
     MD5 check sum: dd7df6c276b3c1af358798b42dbd4e5a
     Pseudo is Ultrasoft + core correction, Zval = 19.0
     Generated by new atomic code, or converted to UPF format
     Using radial grid of  867 points,  6 beta functions with: 
                l(1) =   0
                l(2) =   0
                l(3) =   1
                l(4) =   1
                l(5) =   2
                l(6) =   2
     Q(r) pseudized with  8 coefficients,  rinner =    1.100   1.100   1.100
                                                       1.100   1.100

     PseudoPot. # 4 for O  read from file:
     ../pbe/o_pbe_v1.01.uspp.F.UPF
     MD5 check sum: 2bcb18d16ea4b960afae9ec6d52f22d2
     Pseudo is Ultrasoft + core correction, Zval =  6.0
     Generated by new atomic code, or converted to UPF format
     Using radial grid of  737 points,  5 beta functions with: 
                l(1) =   0
                l(2) =   0
                l(3) =   1
                l(4) =   1
                l(5) =   2
     Q(r) pseudized with  8 coefficients,  rinner =    0.900   0.900   0.900
                                                       0.900   0.900

     PseudoPot. # 5 for Sr read from file:
     ../pbe/sr_pbe_v1.uspp.F.UPF
     MD5 check sum: 6b418c05fbe9db5448babca5e47b7a5b
     Pseudo is Ultrasoft + core correction, Zval = 10.0
     Generated by new atomic code, or converted to UPF format
     Using radial grid of  883 points,  6 beta functions with: 
                l(1) =   0
                l(2) =   0
                l(3) =   1
                l(4) =   1
                l(5) =   2
                l(6) =   2
     Q(r) pseudized with  6 coefficients,  rinner =    1.400   1.400   1.400
                                                       1.400   1.400

     PseudoPot. # 6 for Ti read from file:
     ../pbe/ti_pbe_v1.uspp.F.UPF
     MD5 check sum: bcc8f6961b3b91f0cac3ca967d22d0fb
     Pseudo is Ultrasoft + core correction, Zval = 12.0
     Generated by new atomic code, or converted to UPF format
     Using radial grid of  851 points,  6 beta functions with: 
                l(1) =   0
                l(2) =   0
                l(3) =   1
                l(4) =   1
                l(5) =   2
                l(6) =   2
     Q(r) pseudized with  6 coefficients,  rinner =    1.000   1.000   1.000
                                                       1.000   1.000

     atomic species   valence    mass     pseudopotential
        Ba            10.00   137.32700     Ba( 1.00)
        Y             11.00    88.90585     Y ( 1.00)
        Cu            19.00    63.54600     Cu( 1.00)
        O              6.00    15.99940     O ( 1.00)
        Sr            10.00    87.62000     Sr( 1.00)
        Ti            12.00    47.88000     Ti( 1.00)

      cell mass =  70.63890 AMU 

      4 Sym. Ops. (no inversion) found



   Cartesian axes

     site n.     atom                  positions (alat units)
         1           Ba  tau(   1) = (   0.5000000   0.5000000   1.5396411  )
         2           Ba  tau(   2) = (   0.5000000   0.5000000   3.4092178  )
         3           Y   tau(   3) = (   0.5000000   0.5000000   2.4744293  )
         4           Cu  tau(   4) = (   0.0000000   0.0000000   3.9488613  )
         5           Cu  tau(   5) = (   0.0000000   0.0000000   2.0447808  )
         6           Cu  tau(   6) = (   0.0000000   0.0000000   2.9040781  )
         7           O   tau(   7) = (   0.0000000   0.0000000   1.4694585  )
         8           O   tau(   8) = (   0.0000000   0.0000000   3.4794008  )
         9           O   tau(   9) = (   0.0000000   0.0000000   0.5000000  )
        10           O   tau(  10) = (   0.5000000   0.0000000   2.1099506  )
        11           O   tau(  11) = (   0.5000000   0.0000000   2.8389085  )
        12           O   tau(  12) = (   0.5000000   0.0000000   0.0000000  )
        13           O   tau(  13) = (   0.5000000   0.0000000   1.0000001  )
        14           O   tau(  14) = (   0.0000000   0.5000000   0.0000000  )
        15           O   tau(  15) = (   0.0000000   0.5000000   1.0000001  )
        16           O   tau(  16) = (   0.0000000   0.5000000   2.1126047  )
        17           O   tau(  17) = (   0.0000000   0.5000000   2.8362545  )
        18           O   tau(  18) = (   0.0000000   0.5000000   3.9488613  )
        19           Sr  tau(  19) = (   0.5000000   0.5000000   0.5000000  )
        20           Ti  tau(  20) = (   0.0000000   0.0000000   0.0000000  )
        21           Ti  tau(  21) = (   0.0000000   0.0000000   1.0000001  )

     number of k points=     9  gaussian smearing, width (Ry)=  0.0100
                       cart. coord. in units 2pi/alat
        k(    1) = (   0.0833333   0.0833333   0.0385543), wk =   0.2222222
        k(    2) = (   0.0833333   0.2500000   0.0385543), wk =   0.2222222
        k(    3) = (   0.0833333   0.4166667   0.0385543), wk =   0.2222222
        k(    4) = (   0.2500000   0.2500000   0.0385543), wk =   0.2222222
        k(    5) = (   0.2500000   0.4166667   0.0385543), wk =   0.2222222
        k(    6) = (   0.4166667   0.4166667   0.0385543), wk =   0.2222222
        k(    7) = (   0.2500000   0.0833333  -0.0385543), wk =   0.2222222
        k(    8) = (   0.4166667   0.0833333  -0.0385543), wk =   0.2222222
        k(    9) = (   0.4166667   0.2500000  -0.0385543), wk =   0.2222222

     Dense  grid:   128253 G-vectors     FFT dimensions: (  36,  36, 225)

     Smooth grid:    91639 G-vectors     FFT dimensions: (  32,  32, 200)

     Largest allocated arrays     est. size (Mb)     dimensions
        Kohn-Sham Wavefunctions        18.46 Mb     (  11523,  105)
        NL pseudopotentials            58.37 Mb     (  11523,  332)
        Each V/rho on FFT grid          4.45 Mb     ( 291600)
        Each G-vector array             0.98 Mb     ( 128253)
        G-vector shells                 0.98 Mb     ( 128253)
     Largest temporary arrays     est. size (Mb)     dimensions
        Auxiliary wavefunctions        73.85 Mb     (  11523,  420)
        Each subspace H/S matrix        2.69 Mb     ( 420, 420)
        Each <psi_i|beta_j> matrix      0.53 Mb     (    332,  105)
        Arrays for rho mixing          35.60 Mb     ( 291600,   8)
     writing wfc files to a dedicated directory

     Check: negative/imaginary core charge=   -0.000022    0.000000

     Initial potential from superposition of free atoms
     Check: negative starting charge=   -0.318837

     starting charge  188.93177, renormalised to  194.00000

     negative rho (up, down):  0.327E+00 0.000E+00
     Starting wfc are  159 randomized atomic wfcs

     total cpu time spent up to now is      119.0 secs

     per-process dynamical memory:   245.0 Mb

     Self-consistent Calculation

     iteration #  1     ecut=    40.00 Ry     beta=0.15
     Davidson diagonalization with overlap
     ethr =  1.00E-02,  avg # of iterations =  5.3

     negative rho (up, down):  0.321E+00 0.000E+00

     total cpu time spent up to now is      272.8 secs

     total energy              =   -2126.18372928 Ry
     Harris-Foulkes estimate   =   -2137.57818225 Ry
     estimated scf accuracy    <     652.64027226 Ry

     iteration #  2     ecut=    40.00 Ry     beta=0.15
     Davidson diagonalization with overlap
     ethr =  1.00E-02,  avg # of iterations =  4.8

     negative rho (up, down):  0.319E+00 0.000E+00

     total cpu time spent up to now is      439.6 secs

     total energy              =   -2127.99533704 Ry
     Harris-Foulkes estimate   =   -2131.19262208 Ry
     estimated scf accuracy    <     210.28335033 Ry

     iteration #  3     ecut=    40.00 Ry     beta=0.15
     Davidson diagonalization with overlap
     ethr =  1.00E-02,  avg # of iterations =  1.1

     negative rho (up, down):  0.316E+00 0.000E+00

     total cpu time spent up to now is      593.0 secs

     total energy              =   -2129.31731426 Ry
     Harris-Foulkes estimate   =   -2129.72605484 Ry
     estimated scf accuracy    <      12.54435462 Ry

     iteration #  4     ecut=    40.00 Ry     beta=0.15
     Davidson diagonalization with overlap
     ethr =  6.47E-03,  avg # of iterations =  1.8

     negative rho (up, down):  0.311E+00 0.000E+00

     total cpu time spent up to now is      737.1 secs

     total energy              =   -2129.18792500 Ry
     Harris-Foulkes estimate   =   -2129.68580998 Ry
     estimated scf accuracy    <       7.74744790 Ry

     iteration #  5     ecut=    40.00 Ry     beta=0.15
     Davidson diagonalization with overlap
     ethr =  3.99E-03,  avg # of iterations =  1.0

     negative rho (up, down):  0.309E+00 0.000E+00

     total cpu time spent up to now is      873.7 secs

     total energy              =   -2128.46947388 Ry
     Harris-Foulkes estimate   =   -2129.25092856 Ry
     estimated scf accuracy    <       5.26818685 Ry

     iteration #  6     ecut=    40.00 Ry     beta=0.15
     Davidson diagonalization with overlap
     ethr =  2.72E-03,  avg # of iterations =  3.8

     negative rho (up, down):  0.308E+00 0.000E+00

     total cpu time spent up to now is     1010.4 secs

     total energy              =   -2128.71318187 Ry
     Harris-Foulkes estimate   =   -2129.15739623 Ry
     estimated scf accuracy    <      78.10772994 Ry

     iteration #  7     ecut=    40.00 Ry     beta=0.15
     Davidson diagonalization with overlap
     ethr =  2.72E-03,  avg # of iterations =  1.1

     negative rho (up, down):  0.309E+00 0.000E+00

     total cpu time spent up to now is     1147.6 secs

     total energy              =   -2128.36916188 Ry
     Harris-Foulkes estimate   =   -2128.86061979 Ry
     estimated scf accuracy    <      18.92330642 Ry

     iteration #  8     ecut=    40.00 Ry     beta=0.15
     Davidson diagonalization with overlap
     ethr =  2.72E-03,  avg # of iterations =  1.0

     negative rho (up, down):  0.312E+00 0.000E+00

     total cpu time spent up to now is     1280.9 secs

     total energy              =   -2128.62803264 Ry
     Harris-Foulkes estimate   =   -2128.68221355 Ry
     estimated scf accuracy    <       1.27359157 Ry

     iteration #  9     ecut=    40.00 Ry     beta=0.15
     Davidson diagonalization with overlap
     ethr =  6.56E-04,  avg # of iterations =  5.9

     negative rho (up, down):  0.312E+00 0.000E+00

     total cpu time spent up to now is     1420.4 secs

     total energy              =   -2128.65993604 Ry
     Harris-Foulkes estimate   =   -2128.65664927 Ry
     estimated scf accuracy    <       1.81760399 Ry

     iteration # 10     ecut=    40.00 Ry     beta=0.15
     Davidson diagonalization with overlap
     ethr =  6.56E-04,  avg # of iterations =  1.0

     negative rho (up, down):  0.312E+00 0.000E+00

     total cpu time spent up to now is     1568.9 secs

          k = 0.0833 0.0833 0.0386     band energies (ev):

  -107.5477-107.1149-106.5499 -65.0609 -65.0561 -64.6392 -64.6090 -64.5800
   -64.1940 -63.9685 -63.9563 -63.8321 -51.5993 -50.6766 -32.8129 -29.5005
   -27.8986 -27.8982 -27.8426 -27.0973 -27.0967 -27.0265 -19.2414 -18.4286
   -13.7678 -13.0552 -13.0403 -13.0104 -12.5094 -12.0955 -11.9015 -11.7860
   -11.4861 -11.3562 -11.0771 -10.9462 -10.8640 -10.8094 -10.7625 -10.7446
   -10.3280 -10.1029  -4.4918  -4.3421  -4.2116  -3.7978  -3.6469  -3.5271
     0.7214   1.1916   1.2309   1.2998   1.4017   1.5055   1.5062   1.6465
     1.7682   1.7860   2.0461   2.1990   2.3473   2.4049   2.5616   2.6170
     2.6486   2.6895   2.7415   2.8671   2.9015   3.0319   3.0472   3.1113
     3.1617   3.2101   3.2618   3.2995   3.3423   3.4815   3.5449   3.5547
     3.5954   3.6644   3.9948   4.0308   4.0630   4.1560   4.1917   4.3701
     4.4270   4.4658   4.5844   4.6333   4.6900   4.8478   4.8873   4.9975
     5.3226   5.5116   5.7543   7.0778   7.3005   7.3885   7.4875   7.5143
     7.9063

          k = 0.0833 0.2500 0.0386     band energies (ev):

  -107.5477-107.1149-106.5499 -65.0610 -65.0561 -64.6392 -64.6090 -64.5800
   -64.1940 -63.9685 -63.9563 -63.8321 -51.5990 -50.6762 -32.8079 -29.4928
   -27.9222 -27.8972 -27.8421 -27.1306 -27.0954 -27.0257 -19.2001 -18.3804
   -13.6172 -13.4406 -13.0151 -12.9803 -12.5545 -12.0560 -11.6771 -11.5660
   -11.4725 -11.1898 -11.1554 -10.9293 -10.8698 -10.7031 -10.6916 -10.6771
   -10.3847 -10.1678  -4.4689  -4.4185  -4.1376  -3.8360  -3.6938  -3.4516
     0.5554   0.7014   0.7032   0.8628   1.2340   1.2865   1.4107   1.4516
     1.5392   1.7197   1.7928   1.8749   1.9252   2.0561   2.2166   2.3443
     2.4032   2.4794   2.5245   2.5859   2.6238   2.7925   2.8249   2.8863
     2.9508   3.1118   3.1846   3.2202   3.2742   3.3520   3.4434   3.4656
     3.5791   3.6093   3.7884   3.9363   4.0878   4.1672   4.2383   4.3876
     4.4948   4.5710   4.7645   4.8125   4.8908   4.9959   5.0634   5.2539
     5.3790   5.4354   6.3240   7.4518   7.7202   8.0869   8.1354   8.3761
     8.5998

          k = 0.0833 0.4167 0.0386     band energies (ev):

  -107.5477-107.1149-106.5499 -65.0610 -65.0561 -64.6392 -64.6090 -64.5800
   -64.1940 -63.9685 -63.9563 -63.8321 -51.5987 -50.6758 -32.8029 -29.4852
   -27.9457 -27.8961 -27.8416 -27.1635 -27.0940 -27.0250 -19.1581 -18.3309
   -13.7278 -13.4292 -13.1011 -13.0035 -12.3148 -12.0757 -11.5456 -11.4344
   -11.3984 -11.3483 -11.2283 -10.8914 -10.7750 -10.6585 -10.5691 -10.4983
   -10.4060 -10.2046  -4.4498  -4.4296  -4.1169  -3.8393  -3.7027  -3.4412
     0.0638   0.2441   0.3826   0.4310   0.7868   0.8028   1.1198   1.3358
     1.3962   1.5800   1.6007   1.6531   1.6675   1.8469   2.0157   2.0764
     2.1505   2.2772   2.4386   2.5266   2.5600   2.6043   2.6899   2.7223
     2.8112   2.8769   2.8787   3.2080   3.2783   3.3042   3.3656   3.4354
     3.5353   3.7822   3.9195   3.9555   4.0691   4.2033   4.2414   4.3430
     4.7075   4.7663   4.8001   4.8309   4.8828   5.0168   5.0794   5.3827
     5.6678   5.7654   6.3848   7.4932   8.2744   8.3706   8.7789   8.7968
     9.4227

          k = 0.2500 0.2500 0.0386     band energies (ev):

  -107.5477-107.1149-106.5499 -65.0610 -65.0561 -64.6392 -64.6090 -64.5800
   -64.1940 -63.9685 -63.9563 -63.8322 -51.5987 -50.6758 -32.8029 -29.4850
   -27.9215 -27.9210 -27.8412 -27.1296 -27.1289 -27.0246 -19.1621 -18.3378
   -13.4898 -13.4301 -13.3753 -12.8693 -12.3828 -12.1460 -11.5962 -11.4826
   -11.2254 -11.0784 -11.0744 -10.9812 -10.8447 -10.7179 -10.7137 -10.6638
   -10.3917 -10.1385  -4.6410  -4.4960  -4.2159  -3.9575  -3.8532  -3.5313
     0.2977   0.5510   0.6737   0.7154   0.7642   1.0807   1.1086   1.1471
     1.5029   1.5325   1.5837   1.5909   1.6923   1.7331   1.8968   2.0065
     2.0069   2.1579   2.3431   2.3909   2.5028   2.5693   2.5845   2.7295
     2.7790   3.0487   3.0727   3.2260   3.4862   3.4901   3.5185   3.6204
     3.7628   3.7790   3.9521   4.0210   4.3038   4.3394   4.4387   4.5579
     4.5830   4.6461   4.7297   4.8954   4.9763   5.0899   5.2889   5.4266
     5.7127   6.0950   6.3456   7.8445   8.2679   8.2834   8.5040   8.9420
     9.6391

          k = 0.2500 0.4167 0.0386     band energies (ev):

  -107.5477-107.1149-106.5499 -65.0610 -65.0561 -64.6392 -64.6090 -64.5800
   -64.1940 -63.9685 -63.9563 -63.8322 -51.5985 -50.6754 -32.7980 -29.4771
   -27.9451 -27.9203 -27.8403 -27.1626 -27.1279 -27.0235 -19.1246 -18.2942
   -13.6979 -13.3955 -13.2794 -12.8645 -12.1499 -12.0763 -11.6736 -11.3821
   -11.3288 -11.1279 -11.0330 -10.8317 -10.7944 -10.6573 -10.5410 -10.5349
   -10.3908 -10.1925  -4.7168  -4.4896  -4.4272  -4.0163  -3.8844  -3.7918
    -0.1985   0.2168   0.2324   0.6150   0.7189   0.7920   0.8477   0.8838
     1.0262   1.0315   1.1215   1.2559   1.5348   1.5902   1.6644   1.7760
     2.0235   2.0354   2.1218   2.2040   2.3081   2.3760   2.4940   2.5864
     2.7007   2.8328   3.0525   3.2766   3.5302   3.6097   3.7004   3.7577
     3.7812   3.9376   4.1159   4.3323   4.3952   4.4117   4.5869   4.7084
     4.7794   4.8185   4.9453   4.9477   5.0807   5.2511   5.6176   5.7411
     6.0579   6.3472   6.4597   8.0281   8.5626   8.7048   8.8080   8.9961
     9.0271

          k = 0.4167 0.4167 0.0386     band energies (ev):

  -107.5478-107.1149-106.5499 -65.0609 -65.0561 -64.6392 -64.6090 -64.5800
   -64.1940 -63.9685 -63.9563 -63.8322 -51.5982 -50.6750 -32.7930 -29.4691
   -27.9445 -27.9442 -27.8390 -27.1618 -27.1612 -27.0221 -19.0905 -18.2569
   -13.6803 -13.6634 -13.1071 -12.5340 -12.2231 -12.0161 -11.6093 -11.3962
   -11.2508 -11.2300 -11.2085 -10.6252 -10.5948 -10.5293 -10.5198 -10.4784
   -10.3957 -10.1774  -4.9384  -4.7512  -4.5352  -4.2427  -4.1511  -3.9408
    -0.6489  -0.1403   0.0653   0.2973   0.4400   0.5529   0.7564   0.7729
     0.8851   0.8929   1.0324   1.0647   1.0654   1.2345   1.3966   1.6370
     1.6668   1.9953   2.0036   2.1003   2.1902   2.4088   2.4285   2.4606
     2.5384   2.7647   3.1255   3.4946   3.6658   3.7285   3.9786   4.0810
     4.1608   4.2510   4.2809   4.4906   4.5611   4.6325   4.8152   4.8575
     4.9767   5.0913   5.2116   5.2177   5.2378   5.4841   5.5981   5.6883
     6.3862   6.8024   7.1636   8.5740   8.8396   8.9719   9.1487   9.3002
     9.3911

          k = 0.2500 0.0833-0.0386     band energies (ev):

  -107.5477-107.1149-106.5499 -65.0609 -65.0562 -64.6392 -64.6090 -64.5800
   -64.1940 -63.9685 -63.9563 -63.8322 -51.5990 -50.6762 -32.8079 -29.4928
   -27.9220 -27.8975 -27.8421 -27.1301 -27.0959 -27.0257 -19.1991 -18.3805
   -13.6175 -13.4454 -13.0153 -12.9800 -12.5545 -12.0560 -11.6774 -11.5714
   -11.4724 -11.1897 -11.1379 -10.9282 -10.8820 -10.7936 -10.7140 -10.6930
   -10.3852 -10.0995  -4.5472  -4.3528  -4.1579  -3.8360  -3.6934  -3.4515
     0.5561   0.7016   0.7028   0.8337   1.2336   1.2756   1.4110   1.5207
     1.6420   1.7555   1.8747   1.9180   2.0521   2.2152   2.3486   2.3954
     2.4755   2.5046   2.5815   2.6005   2.6879   2.8061   2.8929   3.0504
     3.1213   3.2020   3.2315   3.2626   3.3425   3.4371   3.4538   3.4943
     3.6044   3.6709   3.7923   3.9257   4.0633   4.1144   4.1809   4.3517
     4.4314   4.5073   4.5475   4.6063   4.7688   4.8435   5.0354   5.0610
     5.3150   5.4190   5.8532   7.5064   7.7368   8.0908   8.1367   8.3620
     9.0659

          k = 0.4167 0.0833-0.0386     band energies (ev):

  -107.5477-107.1149-106.5499 -65.0609 -65.0562 -64.6392 -64.6090 -64.5800
   -64.1940 -63.9685 -63.9563 -63.8322 -51.5987 -50.6758 -32.8028 -29.4852
   -27.9454 -27.8964 -27.8416 -27.1630 -27.0946 -27.0250 -19.1558 -18.3311
   -13.7376 -13.4276 -13.1007 -13.0037 -12.3144 -12.0759 -11.5460 -11.4223
   -11.3919 -11.3552 -11.2285 -10.9526 -10.8792 -10.7102 -10.6037 -10.4997
   -10.4059 -10.0889  -4.5640  -4.3224  -4.1788  -3.8375  -3.7039  -3.4409
     0.0570   0.2434   0.3479   0.4305   0.7868   1.1188   1.3359   1.3833
     1.5690   1.5985   1.6240   1.6555   1.8532   2.0309   2.1020   2.1564
     2.3274   2.4431   2.4669   2.5277   2.5711   2.6900   2.7312   2.8773
     2.9834   3.1215   3.2082   3.2793   3.2944   3.3532   3.4045   3.4411
     3.7396   3.8173   3.9092   3.9559   4.0618   4.1015   4.2110   4.2657
     4.3016   4.6270   4.7348   4.7864   4.8118   4.8803   4.9610   5.0268
     5.2078   5.3673   5.9299   7.4899   8.2797   8.3609   8.7411   8.7850
     8.8541

          k = 0.4167 0.2500-0.0386     band energies (ev):

  -107.5477-107.1149-106.5499 -65.0609 -65.0562 -64.6392 -64.6090 -64.5800
   -64.1940 -63.9685 -63.9563 -63.8322 -51.5985 -50.6754 -32.7979 -29.4771
   -27.9448 -27.9206 -27.8403 -27.1621 -27.1284 -27.0235 -19.1234 -18.2943
   -13.7078 -13.3879 -13.2802 -12.8642 -12.1505 -12.0758 -11.6739 -11.3812
   -11.3078 -11.1282 -11.0345 -10.8592 -10.8227 -10.7698 -10.5425 -10.5349
   -10.3896 -10.1080  -4.6797  -4.5289  -4.4645  -4.0174  -3.8830  -3.7917
    -0.2055   0.1932   0.2316   0.6146   0.7149   0.7917   0.8835   1.0267
     1.0514   1.1205   1.2536   1.5352   1.5823   1.5866   1.6793   1.7733
     2.0213   2.0350   2.1200   2.2050   2.3212   2.3924   2.5884   2.6875
     2.7531   2.9940   3.0637   3.2615   3.5308   3.6203   3.7164   3.7821
     3.8378   4.0040   4.1249   4.3461   4.3900   4.4156   4.5694   4.7039
     4.7163   4.8004   4.8168   4.9138   5.0799   5.1537   5.1880   5.3158
     6.0689   6.3378   6.4794   8.0296   8.5689   8.7067   8.8573   9.0153
     9.5129

     the Fermi energy is     5.7272 ev

     total energy              =   -2128.60282994 Ry
     Harris-Foulkes estimate   =   -2128.66344452 Ry
     estimated scf accuracy    <       1.80955406 Ry

     iteration # 11     ecut=    40.00 Ry     beta=0.15
     Davidson diagonalization with overlap
     ethr =  6.56E-04,  avg # of iterations =  1.0

     negative rho (up, down):  0.321E+00 0.000E+00

     total cpu time spent up to now is     1712.6 secs

     total energy              =   -2128.48744893 Ry
     Harris-Foulkes estimate   =   -2128.62617249 Ry
     estimated scf accuracy    <       0.95239509 Ry

     iteration # 12     ecut=    40.00 Ry     beta=0.15
     Davidson diagonalization with overlap
     ethr =  4.91E-04,  avg # of iterations =  3.8

     negative rho (up, down):  0.324E+00 0.000E+00

     total cpu time spent up to now is     1851.1 secs

     total energy              =   -2128.68714759 Ry
     Harris-Foulkes estimate   =   -2128.56239287 Ry
     estimated scf accuracy    <       6.44102699 Ry

     iteration # 13     ecut=    40.00 Ry     beta=0.15
     Davidson diagonalization with overlap
     ethr =  4.91E-04,  avg # of iterations =  3.4

     negative rho (up, down):  0.324E+00 0.000E+00

     total cpu time spent up to now is     1993.0 secs

     total energy              =   -2128.75145621 Ry
     Harris-Foulkes estimate   =   -2128.82706352 Ry
     estimated scf accuracy    <      44.80726764 Ry

     iteration # 14     ecut=    40.00 Ry     beta=0.15
     Davidson diagonalization with overlap
     ethr =  4.91E-04,  avg # of iterations =  1.0

     negative rho (up, down):  0.323E+00 0.000E+00

     total cpu time spent up to now is     2128.8 secs

     total energy              =   -2128.51269278 Ry
     Harris-Foulkes estimate   =   -2128.76374556 Ry
     estimated scf accuracy    <      33.93561723 Ry

     iteration # 15     ecut=    40.00 Ry     beta=0.15
     Davidson diagonalization with overlap
     ethr =  4.91E-04,  avg # of iterations =  1.0

     negative rho (up, down):  0.322E+00 0.000E+00

     total cpu time spent up to now is     2262.0 secs

     total energy              =   -2128.45074667 Ry
     Harris-Foulkes estimate   =   -2128.58841406 Ry
     estimated scf accuracy    <       8.64200336 Ry

     iteration # 16     ecut=    40.00 Ry     beta=0.15
     Davidson diagonalization with overlap
     ethr =  4.91E-04,  avg # of iterations =  1.0

     negative rho (up, down):  0.323E+00 0.000E+00

     total cpu time spent up to now is     2402.5 secs

     total energy              =   -2128.48083952 Ry
     Harris-Foulkes estimate   =   -2128.50642977 Ry
     estimated scf accuracy    <       0.82770409 Ry

     iteration # 17     ecut=    40.00 Ry     beta=0.15
     Davidson diagonalization with overlap
     ethr =  4.27E-04,  avg # of iterations =  1.0

     negative rho (up, down):  0.324E+00 0.000E+00

     total cpu time spent up to now is     2543.2 secs

     total energy              =   -2128.47162089 Ry
     Harris-Foulkes estimate   =   -2128.48648726 Ry
     estimated scf accuracy    <       0.50555071 Ry

     iteration # 18     ecut=    40.00 Ry     beta=0.15
     Davidson diagonalization with overlap
     ethr =  2.61E-04,  avg # of iterations =  1.6

     negative rho (up, down):  0.324E+00 0.000E+00

     total cpu time spent up to now is     2687.4 secs

     total energy              =   -2128.46628094 Ry
     Harris-Foulkes estimate   =   -2128.47503653 Ry
     estimated scf accuracy    <       0.36606117 Ry

     iteration # 19     ecut=    40.00 Ry     beta=0.15
     Davidson diagonalization with overlap
     ethr =  1.89E-04,  avg # of iterations =  2.0

     negative rho (up, down):  0.325E+00 0.000E+00

     total cpu time spent up to now is     2832.1 secs

     total energy              =   -2128.45867201 Ry
     Harris-Foulkes estimate   =   -2128.46968166 Ry
     estimated scf accuracy    <       0.32770369 Ry

     iteration # 20     ecut=    40.00 Ry     beta=0.15
     Davidson diagonalization with overlap
     ethr =  1.69E-04,  avg # of iterations =  2.0

     negative rho (up, down):  0.329E+00 0.000E+00

     total cpu time spent up to now is     2972.0 secs

          k = 0.0833 0.0833 0.0386     band energies (ev):

  -106.7643-106.6809-106.6111 -64.2757 -64.2692 -64.2568 -64.2433 -64.2336
   -64.1916 -63.9562 -63.7358 -63.4875 -52.9911 -50.9488 -35.5016 -29.3188
   -29.1097 -29.1069 -29.0049 -27.2960 -27.2244 -27.2239 -19.8996 -19.7300
   -15.8478 -15.5128 -15.5050 -12.6601 -12.3501 -12.2213 -11.7567 -11.6943
   -11.5133 -11.2252 -11.1763 -11.1186 -11.0127 -10.8603 -10.8595 -10.5425
   -10.5213 -10.3368  -5.1038  -4.9647  -4.9336  -4.8250  -4.8240  -4.7107
     0.7682   0.9808   1.0624   1.0818   1.2562   1.3053   1.3844   1.5536
     1.7206   2.0446   2.2388   2.2902   2.3057   2.3690   2.4660   2.6984
     2.7075   2.7876   2.8323   2.8586   2.9064   3.1146   3.1379   3.2803
     3.3503   3.3790   3.4172   3.4640   3.4835   3.5515   3.5738   3.5945
     3.7005   3.8630   3.8725   3.9174   3.9473   4.0192   4.0632   4.1935
     4.2277   4.2711   4.4196   4.5596   4.6014   4.7637   4.9663   5.0047
     5.0814   5.1710   5.4240   6.2296   6.2342   6.2995   7.4050   7.6379
     7.9939

          k = 0.0833 0.2500 0.0386     band energies (ev):

  -106.7644-106.6809-106.6111 -64.2757 -64.2692 -64.2568 -64.2433 -64.2335
   -64.1916 -63.9562 -63.7358 -63.4875 -52.9909 -50.9485 -35.4974 -29.3149
   -29.1359 -29.1070 -28.9949 -27.2953 -27.2509 -27.2228 -19.8597 -19.6883
   -15.7745 -15.7106 -15.4993 -12.6574 -12.2672 -11.9525 -11.7322 -11.5734
   -11.5481 -11.2129 -11.1465 -11.1302 -11.0789 -10.8436 -10.7018 -10.5625
   -10.4995 -10.3649  -5.0848  -5.0373  -4.9729  -4.8535  -4.7517  -4.6378
     0.4959   0.6521   0.7831   0.8892   1.1523   1.1984   1.2584   1.3002
     1.4228   1.5068   1.6349   1.9362   2.1337   2.1970   2.2343   2.2927
     2.3235   2.3693   2.5551   2.6111   2.7567   2.8144   2.9361   2.9955
     3.0309   3.1362   3.2075   3.3141   3.3220   3.4389   3.5212   3.5767
     3.6612   3.7120   3.7409   3.8846   4.0340   4.1111   4.1393   4.3625
     4.4280   4.4552   4.5977   4.6628   4.6939   4.8565   5.0367   5.1211
     5.1932   5.4648   5.9997   6.2759   6.8152   6.9599   7.5518   8.6053
     8.9140

          k = 0.0833 0.4167 0.0386     band energies (ev):

  -106.7644-106.6809-106.6111 -64.2757 -64.2692 -64.2568 -64.2433 -64.2335
   -64.1916 -63.9562 -63.7358 -63.4875 -52.9907 -50.9482 -35.4933 -29.3109
   -29.1613 -29.1056 -28.9870 -27.2946 -27.2771 -27.2216 -19.8190 -19.6458
   -15.8880 -15.6966 -15.4923 -12.7849 -12.0018 -11.7323 -11.6696 -11.6272
   -11.4262 -11.2837 -11.1773 -11.0916 -11.0873 -10.8331 -10.7186 -10.5726
   -10.3501 -10.3228  -5.0694  -5.0500  -4.9796  -4.8274  -4.7289  -4.6451
     0.0439   0.2351   0.2607   0.5657   0.6511   0.7913   1.2366   1.2605
     1.3520   1.4302   1.4802   1.5619   1.8413   1.8637   1.9213   1.9898
     2.2030   2.2593   2.3681   2.4722   2.5994   2.6657   2.6964   2.7797
     2.7954   2.9411   2.9700   3.2065   3.2660   3.4221   3.4708   3.5460
     3.5648   3.6325   3.8114   3.8580   4.1392   4.2350   4.2522   4.2868
     4.4682   4.5707   4.6934   4.8032   4.9593   5.0092   5.1281   5.3201
     5.5020   5.5129   6.1171   6.3007   7.4088   7.5906   7.6181   8.6167
     9.4964

          k = 0.2500 0.2500 0.0386     band energies (ev):

  -106.7644-106.6809-106.6111 -64.2757 -64.2692 -64.2568 -64.2433 -64.2335
   -64.1916 -63.9562 -63.7359 -63.4875 -52.9907 -50.9482 -35.4933 -29.3123
   -29.1356 -29.1276 -28.9896 -27.2943 -27.2500 -27.2494 -19.8231 -19.6508
   -15.7084 -15.7040 -15.6882 -12.5758 -12.0714 -11.7725 -11.6974 -11.5039
   -11.4554 -11.2225 -11.1862 -11.1697 -11.1282 -10.7203 -10.6096 -10.5972
   -10.5345 -10.3777  -5.2496  -5.1119  -5.1004  -4.9941  -4.8315  -4.6931
     0.0522   0.4506   0.7728   0.8047   0.9458   0.9840   1.1100   1.2369
     1.3101   1.3975   1.5391   1.6158   1.6285   1.7016   1.8116   1.9264
     2.1117   2.2258   2.2650   2.3165   2.4973   2.6333   2.6534   2.7677
     2.8918   2.9802   2.9967   3.3290   3.5229   3.5517   3.6148   3.7294
     3.7977   3.9242   3.9971   4.1127   4.2173   4.3187   4.3314   4.4205
     4.4274   4.4624   4.4979   4.7788   4.8485   4.9813   5.0673   5.1586
     5.9660   6.0023   6.1492   6.7179   6.9594   7.3202   7.7556   8.8797
     9.1024

          k = 0.2500 0.4167 0.0386     band energies (ev):

  -106.7644-106.6809-106.6111 -64.2757 -64.2692 -64.2568 -64.2433 -64.2335
   -64.1916 -63.9562 -63.7359 -63.4875 -52.9904 -50.9479 -35.4891 -29.3097
   -29.1550 -29.1275 -28.9849 -27.2932 -27.2763 -27.2485 -19.7866 -19.6127
   -15.8735 -15.6859 -15.6301 -12.5680 -11.8122 -11.7382 -11.5651 -11.3884
   -11.3590 -11.2433 -11.2342 -11.1704 -11.0513 -10.7043 -10.6898 -10.5632
   -10.4515 -10.3632  -5.3289  -5.1389  -5.1075  -5.0317  -5.0263  -4.9352
    -0.4239   0.0479   0.2428   0.6084   0.7769   0.8703   0.8962   0.9829
     1.0846   1.1277   1.2266   1.2464   1.3259   1.3914   1.6035   1.7217
     1.9797   2.0872   2.1476   2.2125   2.2335   2.3216   2.5421   2.7277
     2.7418   2.8185   2.9174   3.3837   3.5724   3.6153   3.7329   3.7484
     4.0252   4.1046   4.1381   4.2456   4.3166   4.4149   4.4790   4.5792
     4.6105   4.6328   4.8465   4.8961   4.9404   5.0666   5.3085   5.4608
     6.0782   6.3339   6.4994   6.8507   7.4682   7.7839   7.8363   9.0109
     9.3376

          k = 0.4167 0.4167 0.0386     band energies (ev):

  -106.7644-106.6809-106.6111 -64.2757 -64.2692 -64.2568 -64.2433 -64.2335
   -64.1916 -63.9562 -63.7359 -63.4875 -52.9902 -50.9476 -35.4850 -29.3084
   -29.1499 -29.1480 -28.9829 -27.2919 -27.2756 -27.2751 -19.7536 -19.5790
   -15.8618 -15.8573 -15.5599 -12.2780 -11.8217 -11.7242 -11.4585 -11.3993
   -11.2620 -11.1556 -11.1347 -11.0584 -11.0189 -10.8187 -10.6045 -10.5513
   -10.4298 -10.3808  -5.5476  -5.3549  -5.3436  -5.2647  -5.1553  -5.0774
    -0.9390  -0.3515   0.1715   0.3538   0.6399   0.6499   0.7166   0.7301
     0.7706   0.8134   1.0989   1.2060   1.2190   1.2467   1.3260   1.3998
     1.6252   2.0116   2.0476   2.1365   2.1999   2.2514   2.5019   2.5406
     2.6650   2.6753   2.9573   3.4853   3.7151   3.7915   3.9970   4.1133
     4.2664   4.4468   4.4900   4.5369   4.5846   4.6241   4.6397   4.7996
     4.8403   4.9039   5.0195   5.0681   5.0806   5.0997   5.3068   5.3850
     6.0789   7.1285   7.2106   7.4355   7.5325   7.8985   8.0809   9.2570
     9.4653

          k = 0.2500 0.0833-0.0386     band energies (ev):

  -106.7644-106.6809-106.6111 -64.2758 -64.2692 -64.2568 -64.2433 -64.2336
   -64.1916 -63.9562 -63.7359 -63.4875 -52.9909 -50.9485 -35.4974 -29.3149
   -29.1367 -29.1061 -28.9950 -27.2953 -27.2504 -27.2232 -19.8589 -19.6883
   -15.7741 -15.7092 -15.5040 -12.6577 -12.2673 -11.9560 -11.7323 -11.5691
   -11.5311 -11.2768 -11.1739 -11.1463 -11.0996 -10.8436 -10.7019 -10.5105
   -10.4995 -10.3649  -5.1563  -4.9744  -4.9683  -4.8532  -4.7787  -4.6375
     0.4814   0.6378   0.7828   0.8900   1.1888   1.2341   1.2992   1.3054
     1.4757   1.6345   1.9353   2.1339   2.1953   2.2218   2.2557   2.3128
     2.3408   2.4982   2.6107   2.7211   2.8186   2.8645   2.9945   3.0150
     3.1406   3.2071   3.3038   3.3319   3.3854   3.4336   3.5210   3.6585
     3.6723   3.7098   3.7414   3.8812   3.9002   4.0407   4.1200   4.2366
     4.3166   4.3601   4.4278   4.4558   4.6626   4.7156   4.9404   5.0281
     5.1953   5.3947   5.5999   6.2761   6.8151   6.9602   7.5506   8.4782
     8.5830

          k = 0.4167 0.0833-0.0386     band energies (ev):

  -106.7644-106.6809-106.6111 -64.2758 -64.2692 -64.2569 -64.2433 -64.2335
   -64.1916 -63.9562 -63.7359 -63.4875 -52.9907 -50.9482 -35.4932 -29.3109
   -29.1621 -29.1047 -28.9870 -27.2946 -27.2766 -27.2221 -19.8174 -19.6459
   -15.8893 -15.6958 -15.4971 -12.7852 -12.0027 -11.7317 -11.6624 -11.6269
   -11.4287 -11.3693 -11.1821 -11.1653 -11.1262 -10.8330 -10.7188 -10.4957
   -10.3500 -10.3228  -5.1744  -4.9785  -4.9287  -4.8294  -4.8086  -4.6441
     0.0246   0.2352   0.2413   0.6515   0.7914   1.2221   1.2369   1.3441
     1.4296   1.4730   1.5617   1.8583   1.8691   1.9418   2.0662   2.1406
     2.2389   2.3741   2.4185   2.5564   2.6847   2.7938   2.8504   2.8660
     2.9409   2.9561   3.2083   3.2649   3.3302   3.4059   3.4935   3.5559
     3.6333   3.7367   3.8109   3.8570   3.9201   4.0862   4.2115   4.2489
     4.2824   4.3841   4.5456   4.6790   4.7702   4.8173   4.9439   5.0198
     5.1514   5.3896   5.7027   6.3010   7.4088   7.5910   7.6185   8.6155
     9.5019

          k = 0.4167 0.2500-0.0386     band energies (ev):

  -106.7644-106.6809-106.6111 -64.2758 -64.2692 -64.2568 -64.2433 -64.2335
   -64.1916 -63.9562 -63.7359 -63.4875 -52.9904 -50.9479 -35.4891 -29.3097
   -29.1558 -29.1267 -28.9850 -27.2932 -27.2759 -27.2490 -19.7857 -19.6127
   -15.8749 -15.6873 -15.6297 -12.5682 -11.8128 -11.7376 -11.5314 -11.4131
   -11.3591 -11.2790 -11.2387 -11.2190 -11.0900 -10.7044 -10.6894 -10.5058
   -10.4515 -10.3632  -5.2890  -5.1433  -5.1399  -5.0726  -5.0252  -4.9351
    -0.4333   0.0318   0.2444   0.7771   0.8729   0.8961   0.9931   1.0832
     1.1225   1.2267   1.2456   1.2806   1.3798   1.3899   1.6027   1.7119
     1.9777   2.0877   2.2100   2.2434   2.3272   2.3974   2.5107   2.7885
     2.8317   2.9002   2.9152   3.3779   3.5750   3.6245   3.7347   3.8780
     4.0389   4.1101   4.1389   4.2251   4.2874   4.4008   4.4718   4.5174
     4.5746   4.6098   4.8195   4.8495   4.8919   4.9430   4.9662   5.1045
     6.0069   6.3485   6.5107   6.8508   7.4684   7.7841   7.8359   9.0111
     9.5466

     the Fermi energy is     5.5089 ev

     total energy              =   -2128.43709780 Ry
     Harris-Foulkes estimate   =   -2128.45998982 Ry
     estimated scf accuracy    <       0.29614054 Ry

     iteration # 21     ecut=    40.00 Ry     beta=0.15
     Davidson diagonalization with overlap
     ethr =  1.53E-04,  avg # of iterations =  2.3

     negative rho (up, down):  0.328E+00 0.000E+00

     total cpu time spent up to now is     3115.0 secs

     total energy              =   -2128.43729206 Ry
     Harris-Foulkes estimate   =   -2128.44085066 Ry
     estimated scf accuracy    <       0.17482080 Ry

     iteration # 22     ecut=    40.00 Ry     beta=0.15
     Davidson diagonalization with overlap
     ethr =  9.01E-05,  avg # of iterations =  3.1

     negative rho (up, down):  0.324E+00 0.000E+00

     total cpu time spent up to now is     3261.9 secs

     total energy              =   -2128.43354050 Ry
     Harris-Foulkes estimate   =   -2128.43904488 Ry
     estimated scf accuracy    <       0.14237423 Ry

     iteration # 23     ecut=    40.00 Ry     beta=0.15
     Davidson diagonalization with overlap
     ethr =  7.34E-05,  avg # of iterations =  1.2

     negative rho (up, down):  0.317E+00 0.000E+00

     total cpu time spent up to now is     3426.7 secs

     total energy              =   -2128.43663184 Ry
     Harris-Foulkes estimate   =   -2128.43903011 Ry
     estimated scf accuracy    <       0.19568861 Ry

     iteration # 24     ecut=    40.00 Ry     beta=0.15
     Davidson diagonalization with overlap
     ethr =  7.34E-05,  avg # of iterations =  1.0

     negative rho (up, down):  0.316E+00 0.000E+00

     total cpu time spent up to now is     3566.1 secs

     total energy              =   -2128.42350351 Ry
     Harris-Foulkes estimate   =   -2128.43805790 Ry
     estimated scf accuracy    <       0.17360958 Ry

     iteration # 25     ecut=    40.00 Ry     beta=0.15
     Davidson diagonalization with overlap
     ethr =  7.34E-05,  avg # of iterations =  3.1

     negative rho (up, down):  0.314E+00 0.000E+00

     total cpu time spent up to now is     3712.3 secs

     total energy              =   -2128.43486632 Ry
     Harris-Foulkes estimate   =   -2128.43308754 Ry
     estimated scf accuracy    <       0.06478168 Ry

     iteration # 26     ecut=    40.00 Ry     beta=0.15
     Davidson diagonalization with overlap
     ethr =  3.34E-05,  avg # of iterations =  3.4

     negative rho (up, down):  0.314E+00 0.000E+00

     total cpu time spent up to now is     3861.8 secs

     total energy              =   -2128.43345627 Ry
     Harris-Foulkes estimate   =   -2128.43657174 Ry
     estimated scf accuracy    <       0.24447071 Ry

     iteration # 27     ecut=    40.00 Ry     beta=0.15
     Davidson diagonalization with overlap
     ethr =  3.34E-05,  avg # of iterations =  1.0

     negative rho (up, down):  0.312E+00 0.000E+00

     total cpu time spent up to now is     4004.9 secs

     total energy              =   -2128.44038306 Ry
     Harris-Foulkes estimate   =   -2128.43448406 Ry
     estimated scf accuracy    <       0.10640829 Ry

     iteration # 28     ecut=    40.00 Ry     beta=0.15
     Davidson diagonalization with overlap
     ethr =  3.34E-05,  avg # of iterations =  1.6

     negative rho (up, down):  0.312E+00 0.000E+00

     total cpu time spent up to now is     4153.1 secs

     total energy              =   -2128.42419624 Ry
     Harris-Foulkes estimate   =   -2128.44551923 Ry
     estimated scf accuracy    <       0.72371331 Ry

     iteration # 29     ecut=    40.00 Ry     beta=0.15
     Davidson diagonalization with overlap
     ethr =  3.34E-05,  avg # of iterations =  1.0

     negative rho (up, down):  0.311E+00 0.000E+00

     total cpu time spent up to now is     4292.7 secs

     total energy              =   -2128.43138294 Ry
     Harris-Foulkes estimate   =   -2128.43320429 Ry
     estimated scf accuracy    <       0.11914674 Ry

     iteration # 30     ecut=    40.00 Ry     beta=0.15
     Davidson diagonalization with overlap
     ethr =  3.34E-05,  avg # of iterations =  1.0

     negative rho (up, down):  0.310E+00 0.000E+00

     total cpu time spent up to now is     4436.0 secs

          k = 0.0833 0.0833 0.0386     band energies (ev):

  -107.4214-107.2122-107.1869 -64.9233 -64.8822 -64.7895 -64.7260 -64.7133
   -64.7128 -64.6139 -64.3044 -64.2885 -51.8900 -51.1213 -36.2156 -28.2801
   -28.0343 -28.0317 -27.9182 -27.4673 -27.3849 -27.3843 -20.3901 -20.1802
   -16.5482 -16.2108 -16.2015 -12.8380 -12.1825 -12.1284 -12.0360 -11.8467
   -11.7894 -11.6307 -11.3506 -11.1986 -11.1463 -11.0265 -10.8844  -9.8921
    -9.8321  -9.5516  -5.6083  -5.4708  -5.3705  -5.3284  -5.2600  -5.1466
     0.3819   0.4725   0.4934   0.6805   0.6912   0.7925   1.1120   1.6584
     1.7612   2.0011   2.1094   2.1516   2.2474   2.2537   2.2879   2.3269
     2.3385   2.4454   2.5333   2.5480   2.6851   2.7665   2.8007   2.8315
     2.8821   2.9302   2.9713   2.9869   3.2358   3.2841   3.3276   3.3879
     3.4112   3.5344   3.5778   3.6444   3.7401   3.7960   3.8084   3.9290
     4.0486   4.1476   4.1886   4.3493   4.3672   4.3689   4.4574   4.5257
     4.5770   4.6245   4.8510   7.0833   7.1453   7.1735   7.5121   7.5581
     8.0516

          k = 0.0833 0.2500 0.0386     band energies (ev):

  -107.4214-107.2122-107.1869 -64.9233 -64.8822 -64.7895 -64.7259 -64.7134
   -64.7128 -64.6139 -64.3044 -64.2885 -51.8897 -51.1210 -36.2115 -28.2763
   -28.0629 -28.0310 -27.9076 -27.4682 -27.4091 -27.3837 -20.3495 -20.1389
   -16.4771 -16.4049 -16.1954 -12.5690 -12.1793 -12.1513 -11.8660 -11.8400
   -11.7721 -11.6960 -11.3066 -11.1547 -11.1091 -11.0273 -10.9719  -9.8701
    -9.6500  -9.5904  -5.5889  -5.5478  -5.4098  -5.2887  -5.2550  -5.0743
    -0.0679   0.1124   0.5546   0.6114   0.6968   0.8456   0.9312   1.0997
     1.3971   1.5891   1.6519   1.7275   1.7724   1.7940   1.8879   2.0449
     2.1321   2.1644   2.2524   2.4210   2.4948   2.5788   2.6278   2.6649
     2.7246   2.8255   2.8452   2.9884   3.0050   3.2092   3.2559   3.4448
     3.4673   3.5100   3.5602   3.7368   3.8086   3.8348   3.8707   3.9759
     4.0008   4.1128   4.1633   4.2131   4.3354   4.4139   4.5323   4.6333
     4.6679   4.9387   5.4425   7.1351   7.7051   7.8866   8.3528   8.4483
     8.5074

          k = 0.0833 0.4167 0.0386     band energies (ev):

  -107.4214-107.2122-107.1869 -64.9233 -64.8822 -64.7895 -64.7259 -64.7134
   -64.7128 -64.6139 -64.3044 -64.2884 -51.8894 -51.1207 -36.2074 -28.2725
   -28.0901 -28.0296 -27.8992 -27.4691 -27.4334 -27.3827 -20.3079 -20.0967
   -16.5792 -16.4018 -16.1886 -12.2974 -12.2561 -12.2221 -11.9230 -11.7534
   -11.7127 -11.6011 -11.2631 -11.1651 -11.0390 -11.0022 -10.9645  -9.8491
    -9.6039  -9.5039  -5.5806  -5.5584  -5.4161  -5.2649  -5.2293  -5.0807
    -0.5066  -0.2715   0.0350   0.6588   0.7668   0.8291   0.8458   0.9016
     0.9766   1.1163   1.2262   1.2615   1.3326   1.4574   1.7180   1.9058
     1.9612   1.9803   2.1158   2.2361   2.3018   2.3473   2.4292   2.4996
     2.5943   2.6444   2.8175   2.8686   2.9798   3.1444   3.2809   3.4613
     3.5276   3.5961   3.6517   3.6906   3.7800   3.7921   3.8396   3.9436
     3.9561   4.0469   4.1031   4.3345   4.4706   4.5590   4.7234   4.8646
     4.9788   5.0601   5.5585   7.1672   8.2975   8.4688   8.5172   8.5479
     9.0609

          k = 0.2500 0.2500 0.0386     band energies (ev):

  -107.4214-107.2122-107.1869 -64.9233 -64.8822 -64.7895 -64.7260 -64.7133
   -64.7128 -64.6139 -64.3044 -64.2885 -51.8894 -51.1207 -36.2074 -28.2737
   -28.0619 -28.0542 -27.9009 -27.4680 -27.4103 -27.4080 -20.3123 -20.1017
   -16.4092 -16.4010 -16.3818 -12.3191 -12.1235 -12.0483 -11.8439 -11.8126
   -11.7505 -11.6376 -11.2109 -11.2058 -11.0324 -11.0026 -10.9934  -9.8283
    -9.6674  -9.6364  -5.7594  -5.6162  -5.5326  -5.4309  -5.3392  -5.1291
    -0.5098  -0.1062   0.3693   0.4666   0.6343   0.8507   0.9517   1.0434
     1.0984   1.1841   1.2947   1.6298   1.6454   1.7477   1.7624   1.8571
     1.9457   2.0339   2.1197   2.1306   2.2865   2.3336   2.3771   2.4515
     2.5257   2.6674   2.8364   2.9429   2.9521   3.0181   3.1505   3.3309
     3.5377   3.6189   3.6990   3.7392   3.7857   3.8330   3.8610   4.1263
     4.1517   4.2830   4.3125   4.3930   4.5006   4.5783   4.6513   4.6533
     5.3907   5.4482   5.6011   7.6116   7.8547   8.2591   8.5571   8.7069
     8.7797

          k = 0.2500 0.4167 0.0386     band energies (ev):

  -107.4214-107.2122-107.1869 -64.9233 -64.8822 -64.7895 -64.7259 -64.7134
   -64.7128 -64.6139 -64.3044 -64.2885 -51.8892 -51.1204 -36.2033 -28.2712
   -28.0838 -28.0534 -27.8950 -27.4679 -27.4343 -27.4092 -20.2751 -20.0638
   -16.5652 -16.3781 -16.3373 -12.1894 -12.0297 -11.9955 -11.8615 -11.8113
   -11.7136 -11.3563 -11.1838 -11.1069 -11.0372 -10.9948 -10.9667  -9.7977
    -9.7296  -9.6233  -5.8445  -5.6113  -5.5710  -5.5375  -5.4632  -5.3680
    -0.9769  -0.5001   0.0827   0.3063   0.4550   0.5371   0.7058   0.8052
     0.8991   0.9793   1.1789   1.2280   1.3373   1.5691   1.6215   1.6805
     1.7491   1.8545   1.9321   1.9810   2.0662   2.1187   2.2111   2.2510
     2.3114   2.4461   2.7298   2.9778   3.0107   3.1622   3.3864   3.4699
     3.6411   3.7120   3.8134   3.8272   3.9824   4.0035   4.0261   4.1889
     4.2118   4.2929   4.4717   4.5284   4.6677   4.8221   4.8493   5.0061
     5.5217   5.7611   5.9606   7.7463   8.3794   8.6549   8.7306   8.9103
     9.2081

          k = 0.4167 0.4167 0.0386     band energies (ev):

  -107.4214-107.2122-107.1869 -64.9233 -64.8822 -64.7895 -64.7260 -64.7133
   -64.7128 -64.6139 -64.3044 -64.2885 -51.8889 -51.1201 -36.1993 -28.2699
   -28.0781 -28.0765 -27.8909 -27.4667 -27.4356 -27.4350 -20.2419 -20.0304
   -16.5524 -16.5480 -16.2693 -12.0810 -12.0157 -11.7908 -11.7410 -11.7017
   -11.6736 -11.2297 -11.1586 -11.0632 -10.9862 -10.9099 -10.9089  -9.8765
    -9.7534  -9.7185  -6.0624  -5.8532  -5.7836  -5.6948  -5.6588  -5.5133
    -1.4915  -0.9047   0.0943   0.1282   0.1545   0.2669   0.6604   0.7019
     0.8049   0.8740   1.0512   1.1962   1.2389   1.2527   1.4052   1.4560
     1.5963   1.6698   1.6775   1.7242   1.8812   1.9266   2.1432   2.1886
     2.3489   2.4374   2.5043   2.9383   3.4161   3.4571   3.6987   3.7998
     3.8743   3.9013   3.9777   4.0138   4.0459   4.0691   4.2168   4.2431
     4.3479   4.4310   4.7344   4.8356   4.8516   4.9225   4.9314   5.1789
     5.5292   6.5403   6.6822   8.3393   8.4503   8.6594   8.6964   8.8404
     9.0412

          k = 0.2500 0.0833-0.0386     band energies (ev):

  -107.4214-107.2122-107.1869 -64.9233 -64.8822 -64.7895 -64.7260 -64.7133
   -64.7128 -64.6139 -64.3044 -64.2885 -51.8897 -51.1210 -36.2115 -28.2763
   -28.0626 -28.0313 -27.9076 -27.4682 -27.4094 -27.3834 -20.3487 -20.1389
   -16.4769 -16.4006 -16.2028 -12.5741 -12.1576 -12.1493 -11.8972 -11.8658
   -11.7937 -11.7184 -11.3070 -11.1537 -11.1091 -11.0061 -10.9721  -9.8699
    -9.6501  -9.5903  -5.6622  -5.4753  -5.4097  -5.2887  -5.2845  -5.0744
    -0.0898   0.0948   0.5900   0.6525   0.7107   0.8664   1.0979   1.3974
     1.6032   1.6503   1.6602   1.7538   1.7918   1.8616   2.0373   2.0502
     2.1738   2.3239   2.3347   2.4348   2.5811   2.6317   2.6741   2.7305
     2.8184   2.8314   2.8562   2.9959   3.0982   3.2123   3.2579   3.3455
     3.4453   3.4721   3.5386   3.6983   3.7337   3.8045   3.8100   3.8481
     3.8879   4.0002   4.1482   4.1626   4.2149   4.3057   4.4178   4.5250
     4.6455   4.8639   5.0303   7.1345   7.7014   7.8868   8.0592   8.3556
     8.5079

          k = 0.4167 0.0833-0.0386     band energies (ev):

  -107.4214-107.2122-107.1869 -64.9233 -64.8822 -64.7895 -64.7260 -64.7133
   -64.7128 -64.6139 -64.3044 -64.2885 -51.8894 -51.1207 -36.2073 -28.2725
   -28.0898 -28.0299 -27.8991 -27.4691 -27.4336 -27.3824 -20.3064 -20.0968
   -16.5774 -16.4013 -16.1960 -12.2863 -12.2631 -12.2184 -11.9968 -11.7886
   -11.7557 -11.6018 -11.2639 -11.1639 -11.0393 -10.9845 -10.9636  -9.8489
    -9.6036  -9.5041  -5.6797  -5.4401  -5.4143  -5.3129  -5.2658  -5.0807
    -0.5342  -0.2982   0.6025   0.7719   0.8186   0.8406   0.8979   0.9778
     1.1188   1.2271   1.2793   1.3425   1.5474   1.6789   1.7316   1.9702
     2.1126   2.1785   2.2796   2.3333   2.3613   2.4329   2.5002   2.6032
     2.6484   2.7781   2.8085   2.9081   3.1533   3.1613   3.2823   3.3596
     3.4833   3.5372   3.5770   3.6459   3.6870   3.7685   3.7834   3.9034
     3.9531   3.9837   4.0487   4.0907   4.1705   4.3088   4.4898   4.5703
     4.7236   4.8616   5.1366   7.1671   8.2975   8.4689   8.5172   8.5477
     8.8876

          k = 0.4167 0.2500-0.0386     band energies (ev):

  -107.4214-107.2122-107.1869 -64.9233 -64.8822 -64.7895 -64.7260 -64.7133
   -64.7128 -64.6139 -64.3044 -64.2885 -51.8892 -51.1204 -36.2033 -28.2712
   -28.0835 -28.0537 -27.8950 -27.4679 -27.4345 -27.4089 -20.2743 -20.0639
   -16.5634 -16.3824 -16.3371 -12.1505 -12.0443 -12.0095 -11.9035 -11.8606
   -11.7144 -11.3570 -11.1845 -11.1052 -11.0370 -10.9766 -10.9671  -9.7974
    -9.7294  -9.6236  -5.7989  -5.6481  -5.5835  -5.5717  -5.4619  -5.3681
    -0.9891  -0.5204   0.3138   0.4631   0.5291   0.6604   0.8028   0.8614
     0.8992   0.9801   1.1592   1.2283   1.3380   1.6334   1.6843   1.7104
     1.8390   1.8551   1.9242   1.9614   2.0667   2.1954   2.2605   2.2960
     2.3842   2.4464   2.7269   2.9832   3.0172   3.2911   3.4034   3.4864
     3.6212   3.6835   3.8019   3.8212   3.9151   3.9869   4.0228   4.1642
     4.2504   4.2823   4.3600   4.4612   4.4721   4.5545   4.6683   4.8231
     5.4567   5.7787   5.9693   7.7461   8.3798   8.6541   8.7305   8.9091
     9.0466

     the Fermi energy is     5.0412 ev

     total energy              =   -2128.43196412 Ry
     Harris-Foulkes estimate   =   -2128.43192730 Ry
     estimated scf accuracy    <       0.11212094 Ry

     iteration # 31     ecut=    40.00 Ry     beta=0.15
     Davidson diagonalization with overlap
     ethr =  3.34E-05,  avg # of iterations =  1.0

     negative rho (up, down):  0.308E+00 0.000E+00

     total cpu time spent up to now is     4580.7 secs

     total energy              =   -2128.44295238 Ry
     Harris-Foulkes estimate   =   -2128.43437852 Ry
     estimated scf accuracy    <       0.14123209 Ry

     iteration # 32     ecut=    40.00 Ry     beta=0.15
     Davidson diagonalization with overlap
     ethr =  3.34E-05,  avg # of iterations =  1.9

     negative rho (up, down):  0.307E+00 0.000E+00

     total cpu time spent up to now is     4728.6 secs

     total energy              =   -2128.44154822 Ry
     Harris-Foulkes estimate   =   -2128.45199232 Ry
     estimated scf accuracy    <       1.06840730 Ry

     iteration # 33     ecut=    40.00 Ry     beta=0.15
     Davidson diagonalization with overlap
     ethr =  3.34E-05,  avg # of iterations =  1.0

     negative rho (up, down):  0.308E+00 0.000E+00

     total cpu time spent up to now is     4873.9 secs

     total energy              =   -2128.43632978 Ry
     Harris-Foulkes estimate   =   -2128.44266037 Ry
     estimated scf accuracy    <       0.67505817 Ry

     iteration # 34     ecut=    40.00 Ry     beta=0.15
     Davidson diagonalization with overlap
     ethr =  3.34E-05,  avg # of iterations =  1.0

     negative rho (up, down):  0.307E+00 0.000E+00

     total cpu time spent up to now is     5017.6 secs

     total energy              =   -2128.43815106 Ry
     Harris-Foulkes estimate   =   -2128.43744037 Ry
     estimated scf accuracy    <       0.33802803 Ry

     iteration # 35     ecut=    40.00 Ry     beta=0.15
     Davidson diagonalization with overlap
     ethr =  3.34E-05,  avg # of iterations =  1.0

     negative rho (up, down):  0.307E+00 0.000E+00

     total cpu time spent up to now is     5169.0 secs

     total energy              =   -2128.42517156 Ry
     Harris-Foulkes estimate   =   -2128.43820998 Ry
     estimated scf accuracy    <       0.38579700 Ry

     iteration # 36     ecut=    40.00 Ry     beta=0.15
     Davidson diagonalization with overlap
     ethr =  3.34E-05,  avg # of iterations =  1.2

     negative rho (up, down):  0.308E+00 0.000E+00

     total cpu time spent up to now is     5313.6 secs

     total energy              =   -2128.43051190 Ry
     Harris-Foulkes estimate   =   -2128.43111257 Ry
     estimated scf accuracy    <       0.04419350 Ry

     iteration # 37     ecut=    40.00 Ry     beta=0.15
     Davidson diagonalization with overlap
     ethr =  2.28E-05,  avg # of iterations =  1.0

     negative rho (up, down):  0.308E+00 0.000E+00

     total cpu time spent up to now is     5468.8 secs

     total energy              =   -2128.42869890 Ry
     Harris-Foulkes estimate   =   -2128.43082785 Ry
     estimated scf accuracy    <       0.03182199 Ry

     iteration # 38     ecut=    40.00 Ry     beta=0.15
     Davidson diagonalization with overlap
     ethr =  1.64E-05,  avg # of iterations =  1.0

     negative rho (up, down):  0.309E+00 0.000E+00

     total cpu time spent up to now is     5616.1 secs

     total energy              =   -2128.42910156 Ry
     Harris-Foulkes estimate   =   -2128.42980513 Ry
     estimated scf accuracy    <       0.02362996 Ry

     iteration # 39     ecut=    40.00 Ry     beta=0.15
     Davidson diagonalization with overlap
     ethr =  1.22E-05,  avg # of iterations =  2.7

     negative rho (up, down):  0.308E+00 0.000E+00

     total cpu time spent up to now is     5775.6 secs

     total energy              =   -2128.42920321 Ry
     Harris-Foulkes estimate   =   -2128.42942163 Ry
     estimated scf accuracy    <       0.01453161 Ry

     iteration # 40     ecut=    40.00 Ry     beta=0.15
     Davidson diagonalization with overlap
     ethr =  7.49E-06,  avg # of iterations =  1.8

     negative rho (up, down):  0.308E+00 0.000E+00

     total cpu time spent up to now is     5927.5 secs

          k = 0.0833 0.0833 0.0386     band energies (ev):

  -107.3829-107.2454-107.1684 -64.8789 -64.8490 -64.7943 -64.7553 -64.7103
   -64.6816 -64.5796 -64.3388 -64.2724 -52.0424 -51.1786 -36.0593 -28.4236
   -28.1852 -28.1843 -27.8398 -27.5197 -27.4394 -27.4385 -20.4525 -20.1219
   -16.4076 -16.0629 -16.0530 -12.7873 -12.1559 -12.1249 -12.0628 -11.8118
   -11.7521 -11.5611 -11.4195 -11.2819 -11.1027 -11.0417 -10.8669  -9.8193
    -9.7631  -9.4912  -5.6611  -5.5295  -5.3842  -5.3042  -5.2087  -5.0941
     0.4090   0.5359   0.5606   0.7230   0.7665   0.8530   1.0467   1.7089
     1.7479   1.9706   2.1234   2.1521   2.1936   2.2627   2.3226   2.3318
     2.3485   2.4500   2.5206   2.5917   2.6705   2.7927   2.8073   2.8155
     2.8508   2.9344   2.9689   2.9988   3.2066   3.2966   3.3516   3.4033
     3.4561   3.5483   3.6337   3.6443   3.7357   3.7777   3.8452   3.8946
     4.0609   4.0729   4.1795   4.3229   4.3762   4.3920   4.4441   4.5598
     4.6199   4.6587   4.8630   6.9605   7.0234   7.0319   7.4812   7.5575
     8.0339

          k = 0.0833 0.2500 0.0386     band energies (ev):

  -107.3829-107.2454-107.1684 -64.8789 -64.8490 -64.7943 -64.7553 -64.7103
   -64.6816 -64.5796 -64.3387 -64.2724 -52.0421 -51.1783 -36.0552 -28.4209
   -28.2108 -28.1834 -27.8309 -27.5217 -27.4623 -27.4378 -20.4122 -20.0804
   -16.3345 -16.2614 -16.0468 -12.5206 -12.1905 -12.1124 -11.8953 -11.8000
   -11.7271 -11.6200 -11.3668 -11.2273 -11.0686 -11.0584 -10.9533  -9.7976
    -9.5947  -9.5305  -5.6424  -5.6036  -5.3454  -5.3110  -5.2351  -5.0218
    -0.0380   0.1931   0.5794   0.6421   0.7786   0.8602   0.9496   1.0448
     1.3412   1.6160   1.6882   1.7371   1.7584   1.8295   1.8973   2.0405
     2.1140   2.1418   2.2634   2.4347   2.4579   2.5989   2.6434   2.6683
     2.7545   2.8504   2.8773   2.9664   2.9838   3.2468   3.2757   3.3902
     3.3992   3.5299   3.5923   3.7530   3.8364   3.8905   3.9038   3.9888
     4.0020   4.0529   4.1327   4.2256   4.3389   4.4444   4.5678   4.6103
     4.6688   4.9848   5.4533   7.0109   7.5753   7.7428   8.2376   8.4336
     8.4562

          k = 0.0833 0.4167 0.0386     band energies (ev):

  -107.3830-107.2454-107.1684 -64.8789 -64.8490 -64.7943 -64.7553 -64.7103
   -64.6816 -64.5796 -64.3387 -64.2724 -52.0419 -51.1780 -36.0510 -28.4182
   -28.2361 -28.1822 -27.8227 -27.5236 -27.4851 -27.4369 -20.3710 -20.0381
   -16.4391 -16.2566 -16.0399 -12.2907 -12.2576 -12.1735 -11.8574 -11.7011
   -11.6537 -11.6165 -11.3233 -11.1873 -11.0457 -11.0070 -10.9737  -9.7761
    -9.5472  -9.4573  -5.6334  -5.6119  -5.3493  -5.2866  -5.2132  -5.0285
    -0.4736  -0.2012   0.0146   0.6881   0.7605   0.8072   0.8879   0.9048
     0.9755   1.0874   1.2132   1.2921   1.4053   1.4749   1.7677   1.9170
     1.9607   1.9898   2.0553   2.2012   2.3433   2.3674   2.4291   2.5048
     2.5828   2.6494   2.8399   2.9247   2.9669   3.1402   3.2166   3.4095
     3.5281   3.5969   3.6785   3.7249   3.8097   3.8152   3.8615   3.8725
     3.9683   4.0581   4.1613   4.3791   4.5061   4.5964   4.7364   4.8502
     4.9983   5.0206   5.5763   7.0418   8.1702   8.3417   8.3790   8.4894
     9.0340

          k = 0.2500 0.2500 0.0386     band energies (ev):

  -107.3830-107.2454-107.1684 -64.8789 -64.8490 -64.7943 -64.7553 -64.7103
   -64.6816 -64.5796 -64.3388 -64.2724 -52.0419 -51.1780 -36.0510 -28.4189
   -28.2099 -28.2067 -27.8227 -27.5220 -27.4643 -27.4609 -20.3752 -20.0431
   -16.2662 -16.2558 -16.2374 -12.2787 -12.1035 -12.0402 -11.8222 -11.7659
   -11.6618 -11.6609 -11.2606 -11.2448 -11.0319 -11.0297 -10.9689  -9.7654
    -9.6082  -9.5785  -5.8155  -5.6702  -5.4818  -5.3932  -5.3638  -5.0766
    -0.4639  -0.0365   0.3919   0.5436   0.6635   0.8382   0.9904   1.0298
     1.1242   1.2028   1.2640   1.6427   1.6551   1.6877   1.7413   1.8170
     1.9495   2.0304   2.1098   2.1215   2.3135   2.3363   2.3797   2.4136
     2.4849   2.6760   2.8226   2.9550   2.9609   3.0847   3.1277   3.3637
     3.5783   3.6309   3.7003   3.7408   3.8354   3.8685   3.8991   4.0905
     4.1495   4.2865   4.3716   4.4175   4.4544   4.5295   4.6356   4.6870
     5.4217   5.4577   5.6517   7.4844   7.7241   8.1149   8.6900   8.7287
     8.7961

          k = 0.2500 0.4167 0.0386     band energies (ev):

  -107.3830-107.2454-107.1684 -64.8789 -64.8490 -64.7943 -64.7553 -64.7103
   -64.6816 -64.5796 -64.3388 -64.2724 -52.0416 -51.1777 -36.0469 -28.4170
   -28.2328 -28.2058 -27.8148 -27.5224 -27.4869 -27.4628 -20.3384 -20.0051
   -16.4248 -16.2339 -16.1901 -12.1517 -12.0729 -11.9490 -11.8116 -11.7320
   -11.6505 -11.3835 -11.2230 -11.1436 -11.0376 -11.0207 -10.9540  -9.7365
    -9.6693  -9.5718  -5.8989  -5.6652  -5.5916  -5.5201  -5.3963  -5.3159
    -0.9289  -0.4357   0.0586   0.3351   0.5225   0.5879   0.7407   0.7739
     0.8732   0.9905   1.1897   1.2243   1.3027   1.5739   1.5814   1.6794
     1.7356   1.8092   1.9326   1.9843   2.0791   2.1467   2.1722   2.2332
     2.3097   2.4226   2.7312   2.9721   3.0555   3.1460   3.4546   3.5039
     3.6728   3.7227   3.7902   3.8615   3.9733   4.0171   4.0644   4.2168
     4.2438   4.3361   4.5544   4.5642   4.5874   4.8051   4.8265   4.9529
     5.5347   5.7932   6.0113   7.6174   8.2482   8.5335   8.5851   8.8685
     9.1756

          k = 0.4167 0.4167 0.0386     band energies (ev):

  -107.3830-107.2454-107.1684 -64.8789 -64.8490 -64.7943 -64.7553 -64.7103
   -64.6816 -64.5796 -64.3388 -64.2724 -52.0414 -51.1774 -36.0428 -28.4158
   -28.2297 -28.2289 -27.8068 -27.5213 -27.4891 -27.4881 -20.3053 -19.9716
   -16.4116 -16.4069 -16.1200 -12.0401 -11.9736 -11.8239 -11.7096 -11.6370
   -11.6061 -11.2388 -11.1987 -11.0555 -11.0278 -10.9224 -10.9092  -9.8100
    -9.7005  -9.6656  -6.1188  -5.9051  -5.7330  -5.7125  -5.6439  -5.4456
    -1.4392  -0.8408   0.1012   0.1534   0.1778   0.3350   0.6820   0.7207
     0.7389   0.9090   0.9192   1.1628   1.1839   1.2907   1.4215   1.4879
     1.5747   1.6600   1.6685   1.6992   1.9259   1.9687   2.0977   2.1681
     2.3439   2.4026   2.4858   2.9575   3.4005   3.5114   3.7371   3.8153
     3.8994   3.9209   4.0001   4.0171   4.0607   4.1127   4.2409   4.2754
     4.3865   4.4739   4.7546   4.8222   4.8550   4.8748   5.0358   5.0506
     5.5373   6.5671   6.7354   8.2088   8.3192   8.5868   8.6751   8.8732
     8.8961

          k = 0.2500 0.0833-0.0386     band energies (ev):

  -107.3829-107.2454-107.1684 -64.8789 -64.8490 -64.7943 -64.7553 -64.7103
   -64.6816 -64.5796 -64.3388 -64.2724 -52.0421 -51.1783 -36.0551 -28.4209
   -28.2105 -28.1837 -27.8308 -27.5217 -27.4621 -27.4381 -20.4114 -20.0805
   -16.3342 -16.2567 -16.0547 -12.5250 -12.1905 -12.0889 -11.8953 -11.8577
   -11.7676 -11.6349 -11.3669 -11.2274 -11.0681 -11.0243 -10.9535  -9.7976
    -9.5948  -9.5304  -5.7155  -5.5321  -5.3460  -5.3399  -5.2346  -5.0217
    -0.0578   0.1729   0.6192   0.7028   0.7865   0.9155   1.0406   1.3408
     1.6203   1.6688   1.6913   1.7471   1.8050   1.8854   2.0396   2.0577
     2.1204   2.3089   2.3369   2.4526   2.6037   2.6480   2.6741   2.7584
     2.7946   2.8492   2.8790   2.9814   3.0651   3.2476   3.2761   3.3445
     3.3940   3.4012   3.5766   3.6877   3.7494   3.8160   3.8344   3.8935
     3.9114   3.9928   4.0527   4.1385   4.2284   4.3389   4.4497   4.5614
     4.6767   4.8933   5.0603   7.0108   7.5754   7.7428   8.0532   8.2386
     8.4528

          k = 0.4167 0.0833-0.0386     band energies (ev):

  -107.3830-107.2454-107.1684 -64.8789 -64.8490 -64.7943 -64.7553 -64.7103
   -64.6816 -64.5796 -64.3388 -64.2724 -52.0419 -51.1780 -36.0510 -28.4182
   -28.2359 -28.1825 -27.8226 -27.5236 -27.4849 -27.4371 -20.3695 -20.0382
   -16.4370 -16.2561 -16.0478 -12.2880 -12.2521 -12.1775 -11.9439 -11.7491
   -11.6863 -11.6186 -11.3236 -11.1873 -11.0078 -11.0043 -10.9728  -9.7760
    -9.5471  -9.4574  -5.7333  -5.4910  -5.3723  -5.3475  -5.2142  -5.0283
    -0.4983  -0.2295   0.6415   0.7598   0.8115   0.8762   0.9044   0.9758
     1.0892   1.2136   1.3114   1.4177   1.5487   1.7017   1.7812   1.9647
     2.0543   2.1772   2.3094   2.3366   2.3821   2.4288   2.5033   2.5809
     2.6633   2.7550   2.8241   2.9612   3.1433   3.1477   3.2287   3.3391
     3.4190   3.5218   3.5727   3.6626   3.7236   3.8010   3.8091   3.8513
     3.9088   3.9689   4.0621   4.1504   4.2004   4.3529   4.5279   4.6027
     4.7363   4.8902   5.1697   7.0417   8.1715   8.3423   8.3789   8.4891
     8.8800

          k = 0.4167 0.2500-0.0386     band energies (ev):

  -107.3830-107.2454-107.1684 -64.8789 -64.8490 -64.7943 -64.7553 -64.7103
   -64.6816 -64.5796 -64.3388 -64.2724 -52.0416 -51.1777 -36.0469 -28.4170
   -28.2325 -28.2060 -27.8148 -27.5224 -27.4867 -27.4630 -20.3376 -20.0052
   -16.4227 -16.2387 -16.1898 -12.1172 -12.0722 -11.9830 -11.8434 -11.7944
   -11.6532 -11.3832 -11.2235 -11.1438 -11.0197 -11.0044 -10.9543  -9.7365
    -9.6693  -9.5719  -5.8550  -5.7019  -5.6362  -5.5209  -5.3950  -5.3160
    -0.9407  -0.4560   0.3426   0.5323   0.5793   0.6996   0.7736   0.8324
     0.8715   0.9909   1.1866   1.2095   1.3030   1.5818   1.6998   1.7224
     1.7792   1.8453   1.9344   1.9654   2.0702   2.2216   2.2486   2.2890
     2.3410   2.4225   2.7298   2.9786   3.0660   3.2770   3.4685   3.5206
     3.6440   3.6990   3.7770   3.8516   3.9235   3.9748   4.0553   4.1898
     4.2893   4.3163   4.3502   4.4232   4.5574   4.5755   4.5977   4.8058
     5.4641   5.8108   6.0201   7.6173   8.2496   8.5338   8.5851   8.8677
     9.0347

     the Fermi energy is     5.0410 ev

     total energy              =   -2128.42879114 Ry
     Harris-Foulkes estimate   =   -2128.42929835 Ry
     estimated scf accuracy    <       0.01143865 Ry

     iteration # 41     ecut=    40.00 Ry     beta=0.15
     Davidson diagonalization with overlap
     ethr =  5.90E-06,  avg # of iterations =  3.9

     negative rho (up, down):  0.308E+00 0.000E+00

     total cpu time spent up to now is     6072.7 secs

     total energy              =   -2128.42884292 Ry
     Harris-Foulkes estimate   =   -2128.42900323 Ry
     estimated scf accuracy    <       0.00148878 Ry

     iteration # 42     ecut=    40.00 Ry     beta=0.15
     Davidson diagonalization with overlap
     ethr =  7.67E-07,  avg # of iterations =  6.8

     negative rho (up, down):  0.307E+00 0.000E+00

     total cpu time spent up to now is     6234.7 secs

     total energy              =   -2128.42883778 Ry
     Harris-Foulkes estimate   =   -2128.42895372 Ry
     estimated scf accuracy    <       0.00140438 Ry

     iteration # 43     ecut=    40.00 Ry     beta=0.15
     Davidson diagonalization with overlap
     ethr =  7.24E-07,  avg # of iterations =  1.0

     negative rho (up, down):  0.307E+00 0.000E+00

     total cpu time spent up to now is     6388.5 secs

     total energy              =   -2128.42886638 Ry
     Harris-Foulkes estimate   =   -2128.42891555 Ry
     estimated scf accuracy    <       0.00118093 Ry

     iteration # 44     ecut=    40.00 Ry     beta=0.15
     Davidson diagonalization with overlap
     ethr =  6.09E-07,  avg # of iterations =  1.0

     negative rho (up, down):  0.307E+00 0.000E+00

     total cpu time spent up to now is     6540.7 secs

     total energy              =   -2128.42888378 Ry
     Harris-Foulkes estimate   =   -2128.42889488 Ry
     estimated scf accuracy    <       0.00013847 Ry

     iteration # 45     ecut=    40.00 Ry     beta=0.15
     Davidson diagonalization with overlap
     ethr =  7.14E-08,  avg # of iterations =  1.0

     negative rho (up, down):  0.307E+00 0.000E+00

     total cpu time spent up to now is     6690.5 secs

     total energy              =   -2128.42885531 Ry
     Harris-Foulkes estimate   =   -2128.42888614 Ry
     estimated scf accuracy    <       0.00010890 Ry

     iteration # 46     ecut=    40.00 Ry     beta=0.15
     Davidson diagonalization with overlap
     ethr =  5.61E-08,  avg # of iterations =  2.3

     negative rho (up, down):  0.307E+00 0.000E+00

     total cpu time spent up to now is     6838.4 secs

     total energy              =   -2128.42886100 Ry
     Harris-Foulkes estimate   =   -2128.42886599 Ry
     estimated scf accuracy    <       0.00006192 Ry

     iteration # 47     ecut=    40.00 Ry     beta=0.15
     Davidson diagonalization with overlap
     ethr =  3.19E-08,  avg # of iterations =  1.0

     negative rho (up, down):  0.307E+00 0.000E+00

     total cpu time spent up to now is     6977.7 secs

     total energy              =   -2128.42886076 Ry
     Harris-Foulkes estimate   =   -2128.42886323 Ry
     estimated scf accuracy    <       0.00003256 Ry

     iteration # 48     ecut=    40.00 Ry     beta=0.15
     Davidson diagonalization with overlap
     ethr =  1.68E-08,  avg # of iterations =  1.9

     negative rho (up, down):  0.307E+00 0.000E+00

     total cpu time spent up to now is     7126.7 secs

     total energy              =   -2128.42885490 Ry
     Harris-Foulkes estimate   =   -2128.42886221 Ry
     estimated scf accuracy    <       0.00002393 Ry

     iteration # 49     ecut=    40.00 Ry     beta=0.15
     Davidson diagonalization with overlap
     ethr =  1.23E-08,  avg # of iterations =  2.0

     negative rho (up, down):  0.307E+00 0.000E+00

     total cpu time spent up to now is     7249.9 secs

     End of self-consistent calculation

          k = 0.0833 0.0833 0.0386 ( 11523 PWs)   bands (ev):

  -107.3671-107.2677-107.1549 -64.8591 -64.8340 -64.8186 -64.7780 -64.7005
   -64.6827 -64.5683 -64.3586 -64.2393 -52.0073 -51.1212 -36.0623 -28.3814
   -28.1581 -28.1573 -27.7636 -27.4685 -27.3829 -27.3821 -20.5407 -20.1024
   -16.4110 -16.0652 -16.0562 -12.7985 -12.1350 -12.1221 -12.0670 -11.8290
   -11.8044 -11.5634 -11.3873 -11.2764 -11.1230 -11.0920 -10.8417  -9.7466
    -9.6895  -9.4322  -5.7401  -5.6143  -5.4682  -5.2851  -5.1894  -5.0749
     0.3906   0.5254   0.5602   0.6970   0.7692   0.8494   1.0901   1.6953
     1.7120   1.9980   2.1379   2.1634   2.2210   2.2381   2.2932   2.3332
     2.3452   2.4454   2.5259   2.5905   2.6740   2.7887   2.8116   2.8282
     2.8442   2.9204   2.9775   3.0133   3.2252   3.2812   3.3368   3.4004
     3.4569   3.5508   3.6352   3.6492   3.6994   3.7927   3.8488   3.8545
     4.0597   4.0816   4.1703   4.3292   4.3335   4.3887   4.4328   4.5277
     4.6176   4.6684   4.8356   6.9892   7.0497   7.0519   7.5228   7.5370
     8.0487

          k = 0.0833 0.2500 0.0386 ( 11500 PWs)   bands (ev):

  -107.3671-107.2677-107.1549 -64.8591 -64.8341 -64.8186 -64.7779 -64.7005
   -64.6827 -64.5683 -64.3585 -64.2393 -52.0070 -51.1209 -36.0582 -28.3788
   -28.1834 -28.1564 -27.7547 -27.4708 -27.4060 -27.3814 -20.5006 -20.0609
   -16.3379 -16.2635 -16.0502 -12.5339 -12.1559 -12.1197 -11.8920 -11.8263
   -11.7699 -11.6207 -11.3442 -11.2200 -11.1085 -11.0858 -10.9307  -9.7255
    -9.5242  -9.4721  -5.7222  -5.6869  -5.3954  -5.3262  -5.2159  -5.0026
    -0.0501   0.1955   0.5504   0.6256   0.7838   0.8318   0.9445   1.0818
     1.3656   1.5986   1.6846   1.7285   1.7569   1.8271   1.9006   2.0670
     2.1083   2.1450   2.2637   2.4180   2.4481   2.5931   2.6560   2.6775
     2.7546   2.8554   2.8836   2.9522   2.9915   3.2468   3.2804   3.3954
     3.4118   3.5227   3.5868   3.7568   3.8434   3.8833   3.9050   3.9671
     3.9922   4.0657   4.0957   4.2308   4.2952   4.4513   4.5591   4.5833
     4.6725   4.9876   5.4235   7.0396   7.6014   7.7617   8.2425   8.2609
     8.4113

          k = 0.0833 0.4167 0.0386 ( 11446 PWs)   bands (ev):

  -107.3671-107.2678-107.1549 -64.8591 -64.8341 -64.8185 -64.7779 -64.7005
   -64.6827 -64.5683 -64.3585 -64.2393 -52.0067 -51.1206 -36.0541 -28.3762
   -28.2087 -28.1553 -27.7465 -27.4729 -27.4288 -27.3805 -20.4596 -20.0186
   -16.4414 -16.2598 -16.0433 -12.2850 -12.2445 -12.1795 -11.8781 -11.7362
   -11.6588 -11.6172 -11.3040 -11.1777 -11.0959 -10.9914 -10.9827  -9.7036
    -9.4913  -9.3890  -5.7154  -5.6924  -5.3711  -5.3301  -5.1941  -5.0094
    -0.4823  -0.2005  -0.0179   0.6607   0.7685   0.7959   0.8831   0.9068
     0.9937   1.1046   1.2321   1.2851   1.4044   1.4619   1.7627   1.9146
     1.9501   1.9949   2.0926   2.1740   2.3381   2.3760   2.4375   2.5108
     2.5824   2.6499   2.8396   2.9160   2.9542   3.1441   3.2283   3.4215
     3.5277   3.5986   3.6774   3.7239   3.8009   3.8210   3.8316   3.8765
     3.9342   4.0691   4.1591   4.3785   4.5220   4.5993   4.7507   4.8047
     4.9578   5.0208   5.5513   7.0705   8.1958   8.3682   8.3996   8.5350
     8.9101

          k = 0.2500 0.2500 0.0386 ( 11480 PWs)   bands (ev):

  -107.3671-107.2677-107.1549 -64.8592 -64.8340 -64.8186 -64.7779 -64.7005
   -64.6827 -64.5683 -64.3586 -64.2393 -52.0067 -51.1206 -36.0541 -28.3769
   -28.1826 -28.1797 -27.7463 -27.4712 -27.4082 -27.4046 -20.4638 -20.0237
   -16.2700 -16.2579 -16.2404 -12.2967 -12.0650 -12.0376 -11.8449 -11.8158
   -11.6602 -11.6568 -11.2444 -11.2367 -11.0821 -11.0438 -10.9461  -9.7007
    -9.5477  -9.5091  -5.8987  -5.7501  -5.4766  -5.4627  -5.3445  -5.0576
    -0.4727  -0.0362   0.3880   0.5475   0.6287   0.8055   0.9851   1.0633
     1.1130   1.2221   1.2798   1.6453   1.6566   1.6808   1.7314   1.8160
     1.9575   2.0433   2.1054   2.1261   2.3097   2.3401   2.3786   2.3942
     2.4836   2.6831   2.8321   2.9524   2.9627   3.0848   3.1124   3.3768
     3.5793   3.6213   3.7201   3.7299   3.8221   3.8536   3.9021   4.1230
     4.1516   4.2596   4.3588   4.3673   4.4528   4.4885   4.6457   4.7030
     5.4176   5.4284   5.6519   7.5101   7.7512   8.1346   8.4637   8.6693
     8.7804

          k = 0.2500 0.4167 0.0386 ( 11449 PWs)   bands (ev):

  -107.3671-107.2677-107.1549 -64.8591 -64.8341 -64.8185 -64.7779 -64.7005
   -64.6827 -64.5683 -64.3586 -64.2393 -52.0065 -51.1203 -36.0500 -28.3750
   -28.2056 -28.1789 -27.7381 -27.4718 -27.4308 -27.4067 -20.4271 -19.9856
   -16.4271 -16.2375 -16.1931 -12.1691 -12.0288 -11.9601 -11.8231 -11.7601
   -11.6707 -11.3786 -11.2091 -11.1317 -11.0879 -11.0287 -10.9377  -9.6730
    -9.6101  -9.5064  -5.9816  -5.7451  -5.6744  -5.5012  -5.3769  -5.2970
    -0.9358  -0.4361   0.0249   0.3322   0.5260   0.5788   0.7103   0.7799
     0.8733   1.0053   1.2087   1.2270   1.3254   1.5416   1.5998   1.6737
     1.7433   1.8087   1.9503   1.9872   2.0748   2.1342   2.1494   2.2451
     2.3065   2.4337   2.7425   2.9785   3.0478   3.1319   3.4506   3.5155
     3.6726   3.7201   3.8084   3.8597   3.9827   4.0048   4.0635   4.1927
     4.2322   4.3385   4.5413   4.5698   4.5944   4.7828   4.8199   4.9111
     5.5082   5.7923   6.0112   7.6437   8.2748   8.5580   8.6059   8.9110
     9.1049

          k = 0.4167 0.4167 0.0386 ( 11432 PWs)   bands (ev):

  -107.3671-107.2677-107.1549 -64.8592 -64.8340 -64.8185 -64.7779 -64.7005
   -64.6827 -64.5683 -64.3586 -64.2393 -52.0062 -51.1200 -36.0459 -28.3738
   -28.2027 -28.2021 -27.7296 -27.4707 -27.4333 -27.4322 -20.3941 -19.9521
   -16.4144 -16.4101 -16.1230 -12.0558 -11.9886 -11.7714 -11.7270 -11.6711
   -11.6130 -11.2263 -11.1816 -11.0782 -11.0542 -10.9326 -10.8915  -9.7451
    -9.6436  -9.6064  -6.2016  -5.9867  -5.7922  -5.7142  -5.6251  -5.4263
    -1.4447  -0.8406   0.0671   0.1455   0.1773   0.3381   0.6871   0.7072
     0.7179   0.9118   0.9238   1.1682   1.2213   1.2925   1.4187   1.4818
     1.5802   1.6437   1.6794   1.7171   1.9353   1.9756   2.0701   2.1909
     2.3105   2.4118   2.5044   2.9616   3.3862   3.5018   3.7398   3.8229
     3.8961   3.9170   4.0238   4.0428   4.0577   4.1170   4.2164   4.2747
     4.3839   4.4393   4.7690   4.7800   4.8326   4.8701   5.0062   5.0606
     5.5100   6.5646   6.7343   8.2337   8.3438   8.6076   8.6402   8.8744
     8.9180

          k = 0.2500 0.0833-0.0386 ( 11500 PWs)   bands (ev):

  -107.3671-107.2677-107.1549 -64.8592 -64.8340 -64.8186 -64.7780 -64.7005
   -64.6826 -64.5683 -64.3586 -64.2393 -52.0070 -51.1209 -36.0582 -28.3788
   -28.1834 -28.1565 -27.7547 -27.4708 -27.4058 -27.3816 -20.4999 -20.0610
   -16.3375 -16.2602 -16.0568 -12.5378 -12.1557 -12.0981 -11.9024 -11.8921
   -11.7924 -11.6333 -11.3444 -11.2200 -11.0853 -11.0745 -10.9309  -9.7254
    -9.5243  -9.4720  -5.7952  -5.6159  -5.4245  -5.3263  -5.2154  -5.0026
    -0.0682   0.1783   0.6024   0.6768   0.7884   0.9131   1.0797   1.3656
     1.5857   1.6580   1.6874   1.7516   1.8037   1.8891   2.0415   2.0676
     2.1496   2.2799   2.3274   2.4507   2.5982   2.6606   2.6838   2.7513
     2.7764   2.8532   2.8851   2.9921   3.0445   3.2454   3.2801   3.3292
     3.3973   3.4135   3.5715   3.6558   3.7520   3.7855   3.8407   3.8934
     3.9080   3.9914   4.0659   4.0959   4.2333   4.3042   4.4560   4.5585
     4.6826   4.8772   5.0550   7.0395   7.6015   7.7617   8.0315   8.2427
     8.2626

          k = 0.4167 0.0833-0.0386 ( 11446 PWs)   bands (ev):

  -107.3671-107.2677-107.1549 -64.8592 -64.8340 -64.8186 -64.7780 -64.7005
   -64.6826 -64.5683 -64.3586 -64.2393 -52.0067 -51.1206 -36.0540 -28.3762
   -28.2086 -28.1553 -27.7465 -27.4729 -27.4286 -27.3807 -20.4582 -20.0187
   -16.4406 -16.2592 -16.0499 -12.2748 -12.2474 -12.1883 -11.9820 -11.7645
   -11.6884 -11.6188 -11.3044 -11.1775 -11.0549 -10.9915 -10.9819  -9.7035
    -9.4911  -9.3891  -5.8131  -5.5734  -5.4573  -5.3285  -5.1951  -5.0093
    -0.5046  -0.2246   0.6106   0.7682   0.8012   0.8752   0.9052   0.9942
     1.1093   1.2321   1.3059   1.4207   1.5099   1.6959   1.7769   1.9936
     2.0907   2.1587   2.2794   2.3289   2.3884   2.4368   2.5101   2.5809
     2.6606   2.7336   2.8236   2.9539   3.1299   3.1466   3.2372   3.3188
     3.4305   3.4926   3.5780   3.6682   3.7227   3.7930   3.8065   3.8515
     3.8901   3.9272   4.0719   4.1466   4.1678   4.3558   4.5411   4.6011
     4.7501   4.8732   5.1634   7.0704   8.1959   8.3682   8.3996   8.5347
     8.8586

          k = 0.4167 0.2500-0.0386 ( 11449 PWs)   bands (ev):

  -107.3671-107.2677-107.1549 -64.8592 -64.8340 -64.8186 -64.7779 -64.7005
   -64.6826 -64.5683 -64.3586 -64.2393 -52.0065 -51.1203 -36.0499 -28.3750
   -28.2055 -28.1790 -27.7381 -27.4718 -27.4306 -27.4069 -20.4264 -19.9857
   -16.4263 -16.2409 -16.1927 -12.1365 -12.0311 -11.9941 -11.8686 -11.8152
   -11.6616 -11.3786 -11.2096 -11.1316 -11.0546 -11.0277 -10.9380  -9.6728
    -9.6100  -9.5065  -5.9379  -5.7820  -5.7187  -5.5020  -5.3755  -5.2971
    -0.9469  -0.4544   0.3391   0.5332   0.5702   0.6683   0.7799   0.7973
     0.8717   1.0056   1.1955   1.2247   1.3259   1.6004   1.6939   1.7249
     1.7791   1.8189   1.9513   1.9692   2.0698   2.2197   2.2456   2.2873
     2.3158   2.4337   2.7403   2.9873   3.0585   3.2620   3.4638   3.5270
     3.6348   3.6928   3.7975   3.8510   3.8941   4.0046   4.0562   4.1886
     4.2586   4.3024   4.3313   4.3844   4.5411   4.5782   4.6083   4.8204
     5.4319   5.8094   6.0203   7.6436   8.2749   8.5579   8.6059   8.9104
     9.0052

     the Fermi energy is     5.0278 ev

!    total energy              =   -2128.42885123 Ry
     Harris-Foulkes estimate   =   -2128.42885674 Ry
     estimated scf accuracy    <       0.00000733 Ry

     convergence has been achieved in  49 iterations

     Forces acting on atoms (Ry/au):


     negative rho (up, down):  0.307E+00 0.000E+00
     atom    1 type  1   force =     0.00000000    0.00000000   -0.01811347
     atom    2 type  1   force =     0.00000000    0.00000000    0.02086516
     atom    3 type  2   force =     0.00000000    0.00000000   -0.01078755
     atom    4 type  3   force =     0.00000000    0.00000000   -0.01535972
     atom    5 type  3   force =     0.00000000    0.00000000    0.00138434
     atom    6 type  3   force =     0.00000000    0.00000000   -0.00235452
     atom    7 type  4   force =     0.00000000    0.00000000    0.05066843
     atom    8 type  4   force =     0.00000000    0.00000000   -0.02699969
     atom    9 type  4   force =     0.00000000    0.00000000   -0.08893443
     atom   10 type  4   force =     0.00000000    0.00000000    0.01430839
     atom   11 type  4   force =     0.00000000    0.00000000    0.00040486
     atom   12 type  4   force =     0.00000000    0.00000000   -0.02173092
[...]

     total energy              =   -2128.46315840 Ry
     Harris-Foulkes estimate   =   -2128.46316046 Ry
     estimated scf accuracy    <       0.00002196 Ry

     iteration #  9     ecut=    40.00 Ry     beta=0.15
     Davidson diagonalization with overlap
     ethr =  1.13E-08,  avg # of iterations =  1.6

     negative rho (up, down):  0.306E+00 0.000E+00

     total cpu time spent up to now is    45969.8 secs

     End of self-consistent calculation

          k = 0.0833 0.0833 0.0386 ( 11523 PWs)   bands (ev):

  -107.5553-107.3586-107.2420 -65.0385 -65.0101 -64.8850 -64.8822 -64.7899
   -64.7722 -64.7714 -64.4646 -64.3284 -51.7080 -51.5386 -36.1595 -28.0705
   -28.0013 -27.9572 -27.9539 -27.8931 -27.7118 -27.7099 -20.7120 -20.6713
   -16.5308 -16.1678 -16.1589 -12.9475 -12.4876 -12.2159 -12.0772 -11.9622
   -11.8824 -11.7256 -11.5294 -11.5267 -11.4734 -11.2870 -11.0555  -9.9258
    -9.8748  -9.5782  -5.9233  -5.8465  -5.7843  -5.7608  -5.6454  -5.6394
     0.2702   0.3691   0.3894   0.5820   0.5980   0.6756   0.8222   1.5204
     1.5550   1.7260   1.7782   1.8825   1.9661   2.0689   2.1552   2.2098
     2.2181   2.3626   2.4144   2.4441   2.5760   2.6267   2.6577   2.6637
     2.7018   2.7432   2.8031   2.8437   3.0878   3.1037   3.1275   3.2277
     3.2416   3.2893   3.3446   3.3681   3.5319   3.5490   3.6084   3.7133
     3.8783   3.9747   4.0077   4.1206   4.1490   4.2427   4.3185   4.3748
     4.4200   4.5344   4.7288   6.9848   7.3663   7.3962   7.4082   7.4133
     8.0472

          k = 0.0833 0.2500 0.0386 ( 11500 PWs)   bands (ev):

  -107.5553-107.3586-107.2420 -65.0385 -65.0101 -64.8850 -64.8821 -64.7899
   -64.7722 -64.7714 -64.4646 -64.3284 -51.7077 -51.5383 -36.1553 -28.0565
   -28.0002 -27.9884 -27.9536 -27.8983 -27.7285 -27.7101 -20.6717 -20.6303
   -16.4553 -16.3761 -16.1529 -12.6757 -12.4342 -12.2651 -11.9930 -11.9472
   -11.8718 -11.7848 -11.5681 -11.5010 -11.4055 -11.2862 -11.0073  -9.9033
    -9.7130  -9.6198  -5.8997  -5.8749  -5.8523  -5.7899  -5.5690  -5.5613
    -0.1870   0.0353   0.4310   0.5049   0.6019   0.7080   0.7593   0.8366
     1.0722   1.4465   1.4741   1.5500   1.6247   1.6827   1.7316   1.8017
     1.8849   2.0168   2.0554   2.2405   2.2940   2.3535   2.4592   2.4802
     2.5973   2.7005   2.7121   2.7806   2.8293   3.0806   3.0897   3.2383
     3.3505   3.4126   3.4425   3.5726   3.6222   3.6689   3.6926   3.7463
     3.8088   3.8606   3.9158   4.0892   4.1920   4.2365   4.3684   4.4148
     4.4689   4.8234   5.2613   7.4126   7.7186   7.8265   8.0871   8.2320
     8.3511

          k = 0.0833 0.4167 0.0386 ( 11446 PWs)   bands (ev):

  -107.5554-107.3587-107.2421 -65.0385 -65.0101 -64.8850 -64.8821 -64.7899
   -64.7722 -64.7714 -64.4646 -64.3283 -51.7074 -51.5380 -36.1511 -28.0389
   -28.0213 -27.9976 -27.9518 -27.9096 -27.7440 -27.7096 -20.6305 -20.5885
   -16.5620 -16.3743 -16.1459 -12.4976 -12.4150 -12.3340 -12.0335 -11.8742
   -11.8191 -11.7876 -11.5912 -11.4656 -11.2972 -11.2528 -10.9243  -9.8817
    -9.6371  -9.5804  -5.8838  -5.8677  -5.8527  -5.7603  -5.5761  -5.5410
    -0.6211  -0.3336  -0.1489   0.5312   0.5674   0.6465   0.6575   0.7453
     0.8456   0.9819   1.1015   1.1504   1.2458   1.3191   1.5147   1.6296
     1.6973   1.7696   1.8517   2.0340   2.0556   2.0943   2.2039   2.2788
     2.4784   2.6674   2.6933   2.7479   2.8161   3.0076   3.1951   3.2335
     3.3862   3.4026   3.4552   3.5321   3.5805   3.6018   3.6444   3.7476
     3.7640   3.9590   4.0075   4.2079   4.2993   4.3776   4.4576   4.6235
     4.8237   4.8565   5.3306   7.4610   8.2463   8.3717   8.4228   8.7220
     8.8035

          k = 0.2500 0.2500 0.0386 ( 11480 PWs)   bands (ev):

  -107.5554-107.3586-107.2421 -65.0385 -65.0101 -64.8850 -64.8821 -64.7899
   -64.7722 -64.7714 -64.4646 -64.3283 -51.7074 -51.5380 -36.1511 -28.0454
   -27.9987 -27.9895 -27.9783 -27.8999 -27.7351 -27.7267 -20.6350 -20.5936
   -16.3859 -16.3695 -16.3512 -12.4276 -12.3245 -12.1988 -11.9591 -11.9132
   -11.8339 -11.8282 -11.5696 -11.5038 -11.2754 -11.2608 -10.9826  -9.8647
    -9.7045  -9.6923  -6.0723  -6.0444  -5.9227  -5.8856  -5.6348  -5.6227
    -0.6210  -0.1966   0.2513   0.4181   0.4998   0.7202   0.7684   0.8505
     0.9573   0.9748   1.0786   1.4103   1.4182   1.5139   1.5975   1.7094
     1.8322   1.8824   1.9739   2.0098   2.0474   2.1384   2.2045   2.2574
     2.4068   2.5234   2.5951   2.7632   2.8301   2.8881   2.9781   3.2104
     3.4285   3.4523   3.5378   3.5842   3.6502   3.7102   3.7154   3.8769
     3.9301   3.9783   4.0779   4.1451   4.2853   4.3273   4.4449   4.6394
     5.2507   5.2784   5.5105   7.7749   7.9934   8.0807   8.3831   8.4788
     8.4938

          k = 0.2500 0.4167 0.0386 ( 11449 PWs)   bands (ev):

  -107.5554-107.3587-107.2421 -65.0385 -65.0101 -64.8850 -64.8821 -64.7899
   -64.7722 -64.7713 -64.4646 -64.3283 -51.7071 -51.5378 -36.1469 -28.0333
   -28.0140 -27.9965 -27.9779 -27.9056 -27.7504 -27.7333 -20.5982 -20.5563
   -16.5473 -16.3481 -16.3054 -12.3145 -12.2702 -12.0984 -11.9618 -11.9037
   -11.8094 -11.6758 -11.5264 -11.4647 -11.2439 -11.1313 -10.9447  -9.8346
    -9.7630  -9.6852  -6.1446  -6.0833  -5.9192  -5.9052  -5.8721  -5.8480
    -1.0797  -0.5796  -0.1079   0.1956   0.4018   0.4352   0.5599   0.5986
     0.7190   0.9408   1.0269   1.0310   1.1256   1.3561   1.4432   1.5033
     1.5398   1.5930   1.8136   1.8930   1.9562   2.0093   2.0109   2.1217
     2.1654   2.2480   2.4374   2.7698   2.8893   2.9899   3.2713   3.3389
     3.5140   3.5272   3.6150   3.7117   3.7676   3.8043   3.9069   3.9980
     4.0202   4.1211   4.1875   4.3326   4.3806   4.6133   4.7605   4.7880
     5.2682   5.6485   5.8573   7.9236   8.4784   8.5257   8.5585   8.8707
     8.9354

          k = 0.4167 0.4167 0.0386 ( 11432 PWs)   bands (ev):

  -107.5554-107.3587-107.2421 -65.0385 -65.0101 -64.8850 -64.8821 -64.7899
   -64.7722 -64.7713 -64.4647 -64.3283 -51.7068 -51.5375 -36.1427 -28.0298
   -28.0055 -28.0025 -27.9953 -27.9013 -27.7583 -27.7557 -20.5654 -20.5235
   -16.5334 -16.5273 -16.2333 -12.1900 -12.1236 -12.0313 -11.8678 -11.7955
   -11.7514 -11.5666 -11.4929 -11.4705 -11.2335 -10.9540 -10.8941  -9.9077
    -9.7940  -9.7649  -6.3736  -6.3060  -6.2124  -6.1703  -5.9648  -5.9390
    -1.5866  -0.9771  -0.0663  -0.0089   0.0349   0.2455   0.4250   0.5632
     0.6076   0.8615   0.9448   0.9748   1.0114   1.2452   1.2851   1.3304
     1.3907   1.4795   1.5653   1.5852   1.7749   1.8219   1.8570   1.9395
     2.2085   2.2239   2.2961   2.7986   3.2402   3.3260   3.5913   3.6247
     3.7373   3.7513   3.8189   3.8474   3.8777   3.9574   4.0438   4.1015
     4.2068   4.2517   4.3448   4.4174   4.6119   4.6406   4.6771   5.2161
     5.2624   6.4215   6.5493   8.4027   8.5111   8.5944   8.7908   8.8670
     8.9019

          k = 0.2500 0.0833-0.0386 ( 11500 PWs)   bands (ev):

  -107.5553-107.3586-107.2420 -65.0386 -65.0101 -64.8850 -64.8822 -64.7899
   -64.7722 -64.7714 -64.4646 -64.3284 -51.7077 -51.5383 -36.1553 -28.0565
   -28.0002 -27.9884 -27.9536 -27.8983 -27.7285 -27.7100 -20.6712 -20.6303
   -16.4554 -16.3711 -16.1590 -12.6825 -12.4341 -12.2432 -11.9951 -11.9930
   -11.9025 -11.8044 -11.5672 -11.5011 -11.4056 -11.2704 -11.0073  -9.9033
    -9.7130  -9.6198  -5.9613  -5.8765  -5.7928  -5.7879  -5.5854  -5.5691
    -0.2053   0.0196   0.4757   0.5570   0.6175   0.7134   0.8275   1.0722
     1.4759   1.4922   1.5435   1.6089   1.6822   1.7287   1.7904   1.8732
     1.9105   2.0384   2.1572   2.2628   2.3860   2.4625   2.4975   2.5929
     2.6416   2.6957   2.7148   2.7818   2.9207   3.0800   3.0927   3.1316
     3.2398   3.3653   3.4422   3.5120   3.5708   3.6109   3.6256   3.6676
     3.6910   3.7660   3.8600   3.9111   4.1174   4.1919   4.2364   4.3598
     4.4640   4.7444   4.9235   7.4127   7.7186   7.8259   7.9163   8.0872
     8.2321

          k = 0.4167 0.0833-0.0386 ( 11446 PWs)   bands (ev):

  -107.5554-107.3586-107.2421 -65.0386 -65.0101 -64.8850 -64.8822 -64.7899
   -64.7722 -64.7714 -64.4647 -64.3283 -51.7074 -51.5380 -36.1510 -28.0389
   -28.0213 -27.9976 -27.9518 -27.9096 -27.7441 -27.7096 -20.6295 -20.5886
   -16.5576 -16.3748 -16.1520 -12.4960 -12.4100 -12.3393 -12.0969 -11.9132
   -11.8464 -11.7991 -11.5890 -11.4658 -11.2973 -11.2512 -10.9242  -9.8817
    -9.6371  -9.5804  -5.9762  -5.8753  -5.7598  -5.7307  -5.6174  -5.5768
    -0.6429  -0.3513   0.4796   0.5668   0.6370   0.6659   0.7443   0.8427
     0.9814   1.1016   1.1695   1.2537   1.4496   1.5202   1.5557   1.6485
     1.7637   1.9881   2.0203   2.0556   2.1180   2.2458   2.2852   2.4882
     2.5944   2.6577   2.6756   2.7804   2.9964   3.0104   3.1495   3.1952
     3.2449   3.3290   3.3930   3.4354   3.5158   3.5801   3.6005   3.6791
     3.7446   3.7585   3.9577   3.9771   3.9984   4.1830   4.3148   4.3793
     4.4585   4.7348   5.0321   7.4611   8.2464   8.3717   8.4223   8.7221
     8.7507

          k = 0.4167 0.2500-0.0386 ( 11449 PWs)   bands (ev):

  -107.5554-107.3586-107.2421 -65.0386 -65.0101 -64.8850 -64.8821 -64.7899
   -64.7722 -64.7713 -64.4647 -64.3283 -51.7071 -51.5378 -36.1469 -28.0333
   -28.0140 -27.9965 -27.9779 -27.9056 -27.7504 -27.7332 -20.5977 -20.5563
   -16.5430 -16.3533 -16.3055 -12.2943 -12.2553 -12.1291 -11.9976 -11.9520
   -11.8125 -11.6719 -11.5256 -11.4649 -11.2344 -11.1313 -10.9447  -9.8346
    -9.7630  -9.6852  -6.1079  -6.0829  -5.9522  -5.9086  -5.8811  -5.8712
    -1.0898  -0.5937   0.2030   0.4085   0.4293   0.5313   0.5602   0.7132
     0.7192   0.9411   1.0078   1.0310   1.1257   1.3561   1.4779   1.5314
     1.5956   1.7015   1.7915   1.8905   1.9607   2.0784   2.1320   2.1518
     2.1844   2.2477   2.4287   2.7687   2.9005   3.1209   3.2873   3.3640
     3.4853   3.5063   3.5864   3.7025   3.7224   3.7693   3.8928   4.0105
     4.0263   4.0933   4.1246   4.1763   4.2122   4.3692   4.3914   4.7880
     5.2468   5.6640   5.8604   7.9237   8.4783   8.5255   8.5584   8.8360
     8.8715

     the Fermi energy is     4.8897 ev

!    total energy              =   -2128.46314812 Ry
     Harris-Foulkes estimate   =   -2128.46315940 Ry
     estimated scf accuracy    <       0.00001473 Ry

     convergence has been achieved in   9 iterations

     Forces acting on atoms (Ry/au):


     negative rho (up, down):  0.306E+00 0.000E+00
     atom    1 type  1   force =     0.00000000    0.00000000   -0.00829835
     atom    2 type  1   force =     0.00000000    0.00000000    0.01520752
     atom    3 type  2   force =     0.00000000    0.00000000   -0.00333406
     atom    4 type  3   force =     0.00000000    0.00000000   -0.02441788
     atom    5 type  3   force =     0.00000000    0.00000000    0.01272580
     atom    6 type  3   force =     0.00000000    0.00000000    0.00515771
     atom    7 type  4   force =     0.00000000    0.00000000   -0.00039008
     atom    8 type  4   force =     0.00000000    0.00000000   -0.00448266
     atom    9 type  4   force =     0.00000000    0.00000000    0.01585101
     atom   10 type  4   force =     0.00000000    0.00000000    0.00282488
     atom   11 type  4   force =     0.00000000    0.00000000    0.00195844
     atom   12 type  4   force =     0.00000000    0.00000000   -0.00563729
     atom   13 type  4   force =     0.00000000    0.00000000   -0.00871251
     atom   14 type  4   force =     0.00000000    0.00000000   -0.00564903
     atom   15 type  4   force =     0.00000000    0.00000000   -0.00873097
     atom   16 type  4   force =     0.00000000    0.00000000    0.00078707
     atom   17 type  4   force =     0.00000000    0.00000000    0.00154779
     atom   18 type  4   force =     0.00000000    0.00000000    0.01054532
     atom   19 type  5   force =     0.00000000    0.00000000   -0.01200616
     atom   20 type  6   force =     0.00000000    0.00000000    0.00013651
     atom   21 type  6   force =     0.00000000    0.00000000    0.01491693

     Total force =     0.045564     Total SCF correction =     0.020314
     SCF correction compared to forces is large: reduce conv_thr to get better values


     entering subroutine stress ...


     negative rho (up, down):  0.306E+00 0.000E+00
          total   stress  (Ry/bohr**3)                   (kbar)     P=  -25.43
  -0.00018027   0.00000000   0.00000000        -26.52      0.00      0.00
   0.00000000  -0.00032316   0.00000000          0.00    -47.54      0.00
   0.00000000   0.00000000  -0.00001523          0.00      0.00     -2.24


     Entering Dynamics;  it =    21   time =  0.01936 pico-seconds

  new lattice vectors (alat unit) :
   1.000000000   0.000000000   0.000000000
   0.000000000   1.000000000   0.000000000
   0.000000000   0.000000000   6.483875592
  new unit-cell volume =   2684.3677 (a.u.)^3
  new positions in cryst coord
Ba       0.500000000   0.500000000   0.237210337
Ba       0.500000000   0.500000000   0.526055123
Y        0.500000000   0.500000000   0.381385230
Cu       0.000000000   0.000000000   0.608417797
Cu       0.000000000   0.000000000   0.315325078
Cu       0.000000000   0.000000000   0.447876559
O        0.000000000   0.000000000   0.228894997
O        0.000000000   0.000000000   0.533837866
O        0.000000000   0.000000000   0.073241227
O        0.500000000   0.000000000   0.326962563
O        0.500000000   0.000000000   0.437945046
O        0.500000000   0.000000000  -0.002409251
O        0.500000000   0.000000000   0.151119347
O        0.000000000   0.500000000  -0.002409108
O        0.000000000   0.500000000   0.151123676
O        0.000000000   0.500000000   0.326957164
O        0.000000000   0.500000000   0.437527182
O        0.000000000   0.500000000   0.611260414
Sr       0.500000000   0.500000000   0.076957013
Ti       0.000000000   0.000000000   0.002736023
Ti       0.000000000   0.000000000   0.155916993
  new positions in cart coord (alat unit)
Ba       0.500000000   0.500000000   1.538042312
Ba       0.500000000   0.500000000   3.410875970
Y        0.500000000   0.500000000   2.472854385
Cu       0.000000000   0.000000000   3.944905304
Cu       0.000000000   0.000000000   2.044528580
Cu       0.000000000   0.000000000   2.903975886
O        0.000000000   0.000000000   1.484126683
O        0.000000000   0.000000000   3.461338307
O        0.000000000   0.000000000   0.474887005
O        0.500000000   0.000000000   2.119984582
O        0.500000000   0.000000000   2.839581196
O        0.500000000   0.000000000  -0.015621285
O        0.500000000   0.000000000   0.979839043
O        0.000000000   0.500000000  -0.015620355
O        0.000000000   0.500000000   0.979867114
O        0.000000000   0.500000000   2.119949574
O        0.000000000   0.500000000   2.836871817
O        0.000000000   0.500000000   3.963336479
Sr       0.500000000   0.500000000   0.498979696
Ti       0.000000000   0.000000000   0.017740034
Ti       0.000000000   0.000000000   1.010946384

     Ekin =     0.01638900 Ry    T =   71.8 K  Etot = -2128.44675912
     new unit-cell volume =   2684.36767 a.u.^3 (   397.78224 Ang^3 )

CELL_PARAMETERS (alat=  7.45307987)
   1.000000000   0.000000000   0.000000000
   0.000000000   1.000000000   0.000000000
   0.000000000   0.000000000   6.483875592

ATOMIC_POSITIONS (crystal)
Ba       0.500000000   0.500000000   0.237210337    0   0   1
Ba       0.500000000   0.500000000   0.526055123    0   0   1
Y        0.500000000   0.500000000   0.381385230    0   0   1
Cu       0.000000000   0.000000000   0.608417797    0   0   1
Cu       0.000000000   0.000000000   0.315325078    0   0   1
Cu       0.000000000   0.000000000   0.447876559    0   0   1
O        0.000000000   0.000000000   0.228894997    0   0   1
O        0.000000000   0.000000000   0.533837866    0   0   1
O        0.000000000   0.000000000   0.073241227    0   0   1
O        0.500000000   0.000000000   0.326962563    0   0   1
O        0.500000000   0.000000000   0.437945046    0   0   1
O        0.500000000   0.000000000  -0.002409251    0   0   1
O        0.500000000   0.000000000   0.151119347    0   0   1
O        0.000000000   0.500000000  -0.002409108    0   0   1
O        0.000000000   0.500000000   0.151123676    0   0   1
O        0.000000000   0.500000000   0.326957164    0   0   1
O        0.000000000   0.500000000   0.437527182    0   0   1
O        0.000000000   0.500000000   0.611260414    0   0   1
Sr       0.500000000   0.500000000   0.076957013    0   0   1
Ti       0.000000000   0.000000000   0.002736023    0   0   1
Ti       0.000000000   0.000000000   0.155916993    0   0   1



     Writing output data file test_1_2.save
     Check: negative starting charge=   -0.317912
     NEW-OLD atomic charge density approx. for the potential
     NEW k-points:
        k(    1) = (   0.0833333   0.0833333   0.0385572), wk =   0.2222222
        k(    2) = (   0.0833333   0.2500000   0.0385572), wk =   0.2222222
        k(    3) = (   0.0833333   0.4166667   0.0385572), wk =   0.2222222
        k(    4) = (   0.2500000   0.2500000   0.0385572), wk =   0.2222222
        k(    5) = (   0.2500000   0.4166667   0.0385572), wk =   0.2222222
        k(    6) = (   0.4166667   0.4166667   0.0385572), wk =   0.2222222
        k(    7) = (   0.2500000   0.0833333  -0.0385572), wk =   0.2222222
        k(    8) = (   0.4166667   0.0833333  -0.0385572), wk =   0.2222222
        k(    9) = (   0.4166667   0.2500000  -0.0385572), wk =   0.2222222

     Check: negative/imaginary core charge=   -0.000022    0.000000
     Check: negative starting charge=   -0.317811

     negative rho (up, down):  0.306E+00 0.000E+00
     extrapolated charge  193.99872, renormalised to  194.00000

     total cpu time spent up to now is    46467.2 secs

     per-process dynamical memory:   278.9 Mb

     Self-consistent Calculation

     iteration #  1     ecut=    40.00 Ry     beta=0.15
     Davidson diagonalization with overlap
     ethr =  1.00E-06,  avg # of iterations =  3.6

     negative rho (up, down):  0.306E+00 0.000E+00

     total cpu time spent up to now is    46665.1 secs

     total energy              =   -2128.46381543 Ry
     Harris-Foulkes estimate   =   -2128.51790861 Ry
     estimated scf accuracy    <       0.00701116 Ry

     iteration #  2     ecut=    40.00 Ry     beta=0.15
     Davidson diagonalization with overlap
     ethr =  3.61E-06,  avg # of iterations =  1.0

     negative rho (up, down):  0.306E+00 0.000E+00

     total cpu time spent up to now is    46819.0 secs

     total energy              =   -2128.46380043 Ry
     Harris-Foulkes estimate   =   -2128.46384921 Ry
     estimated scf accuracy    <       0.00209487 Ry

     iteration #  3     ecut=    40.00 Ry     beta=0.15
     Davidson diagonalization with overlap
     ethr =  1.08E-06,  avg # of iterations =  1.0

     negative rho (up, down):  0.306E+00 0.000E+00

     total cpu time spent up to now is    46965.8 secs

     total energy              =   -2128.46381070 Ry
     Harris-Foulkes estimate   =   -2128.46382675 Ry
     estimated scf accuracy    <       0.00029741 Ry

     iteration #  4     ecut=    40.00 Ry     beta=0.15
     Davidson diagonalization with overlap
     ethr =  1.53E-07,  avg # of iterations =  1.0

     negative rho (up, down):  0.306E+00 0.000E+00

     total cpu time spent up to now is    47126.9 secs

     total energy              =   -2128.46376490 Ry
     Harris-Foulkes estimate   =   -2128.46381562 Ry
     estimated scf accuracy    <       0.00048139 Ry

     iteration #  5     ecut=    40.00 Ry     beta=0.15
     Davidson diagonalization with overlap
     ethr =  1.53E-07,  avg # of iterations =  1.9

     negative rho (up, down):  0.307E+00 0.000E+00

     total cpu time spent up to now is    47277.3 secs

     total energy              =   -2128.46376967 Ry
     Harris-Foulkes estimate   =   -2128.46378200 Ry
     estimated scf accuracy    <       0.00032956 Ry

     iteration #  6     ecut=    40.00 Ry     beta=0.15
     Davidson diagonalization with overlap
     ethr =  1.53E-07,  avg # of iterations =  1.0

     negative rho (up, down):  0.307E+00 0.000E+00
