ANIMSTEPS 354
CRYSTAL
PRIMVEC 1
     3.9439985152    0.0000000000    0.0000000000
     0.0000000000    3.9439985152    0.0000000000
     0.0000000000    0.0000000000   78.1439689083
 PRIMCOORD 1
21 1
   Ba       1.9719992576     1.9719992576    25.8510782796       0.0000000000     0.0000000000    -0.0115751700
   Ba       1.9719992576     1.9719992576    37.6930746221       0.0000000000     0.0000000000    -0.0116945600
   Ba       1.9719992576     1.9719992576    49.5350693870       0.0000000000     0.0000000000    -0.0121496600
   Ba       1.9719992576     1.9719992576    61.3770637575       0.0000000000     0.0000000000     0.0030078900
   Ba       1.9719992576     1.9719992576    21.5169039353       0.0000000000     0.0000000000     0.0183485200
   Ba       1.9719992576     1.9719992576    33.3589002778       0.0000000000     0.0000000000     0.0238022700
   Ba       1.9719992576     1.9719992576    45.2008950427       0.0000000000     0.0000000000     0.0234960000
   Ba       1.9719992576     1.9719992576    57.0428905964       0.0000000000     0.0000000000     0.0273199500
    Y       1.9719992576     1.9719992576    17.7629931334       0.0000000000     0.0000000000    -0.0430220700
    Y       1.9719992576     1.9719992576    29.6049886871       0.0000000000     0.0000000000    -0.0366151700
    Y       1.9719992576     1.9719992576    41.4469834520       0.0000000000     0.0000000000    -0.0368134500
    Y       1.9719992576     1.9719992576    53.2889809777       0.0000000000     0.0000000000    -0.0377413800
   Cu       0.0000000000     0.0000000000    23.6839911074       0.0000000000     0.0000000000    -0.0073930700
   Cu       0.0000000000     0.0000000000    35.5259874499       0.0000000000     0.0000000000    -0.0049121300
   Cu       0.0000000000     0.0000000000    47.3679822149       0.0000000000     0.0000000000    -0.0024397700
   Cu       0.0000000000     0.0000000000    59.2099765854       0.0000000000     0.0000000000    -0.0065646300
   Cu       0.0000000000     0.0000000000    16.0376148637       0.0000000000     0.0000000000     0.0422577200
   Cu       0.0000000000     0.0000000000    27.8796116007       0.0000000000     0.0000000000     0.0288591500
   Cu       0.0000000000     0.0000000000    39.7216071544       0.0000000000     0.0000000000     0.0286699500
   Cu       0.0000000000     0.0000000000    51.5636027081       0.0000000000     0.0000000000     0.0311573400
   Cu       0.0000000000     0.0000000000    63.4055970786       0.0000000000     0.0000000000    -0.0159977300
PRIMVEC 2
     3.9439985152    0.0000000000    0.0000000000
     0.0000000000    3.9439985152    0.0000000000
     0.0000000000    0.0000000000   78.1439652522
 PRIMCOORD 2
21 1
   Ba       1.9720000000     1.9720000000    25.8510731880       0.0000000000     0.0000000000    -0.0110556900
   Ba       1.9720000000     1.9720000000    37.6930732460       0.0000000000     0.0000000000    -0.0109892700
   Ba       1.9720000000     1.9720000000    49.5350709260       0.0000000000     0.0000000000    -0.0117056700
   Ba       1.9720000000     1.9720000000    61.3770862080       0.0000000000     0.0000000000     0.0038892600
   Ba       1.9720000000     1.9720000000    21.5169312200       0.0000000000     0.0000000000     0.0188555400
   Ba       1.9720000000     1.9720000000    33.3589375610       0.0000000000     0.0000000000     0.0243590700
   Ba       1.9720000000     1.9720000000    45.2009354090       0.0000000000     0.0000000000     0.0238313300
   Ba       1.9720000000     1.9720000000    57.0429389130       0.0000000000     0.0000000000     0.0278672000
    Y       1.9720000000     1.9720000000    17.7629238690       0.0000000000     0.0000000000    -0.0424153800
    Y       1.9720000000     1.9720000000    29.6049342190       0.0000000000     0.0000000000    -0.0358729800
    Y       1.9720000000     1.9720000000    41.4469320660       0.0000000000     0.0000000000    -0.0365501700
    Y       1.9720000000     1.9720000000    53.2889316430       0.0000000000     0.0000000000    -0.0370430900
   Cu       0.0000000000     0.0000000000    23.6839803730       0.0000000000     0.0000000000    -0.0077162400
   Cu       0.0000000000     0.0000000000    35.5259866110       0.0000000000     0.0000000000    -0.0104817500
   Cu       0.0000000000     0.0000000000    47.3679908270       0.0000000000     0.0000000000    -0.0012772800
   Cu       0.0000000000     0.0000000000    59.2099789700       0.0000000000     0.0000000000    -0.0065464300
   Cu       0.0000000000     0.0000000000    16.0377228640       0.0000000000     0.0000000000     0.0404198900
   Cu       0.0000000000     0.0000000000    27.8796904130       0.0000000000     0.0000000000     0.0293559800
   Cu       0.0000000000     0.0000000000    39.7216891450       0.0000000000     0.0000000000     0.0309125900
   Cu       0.0000000000     0.0000000000    51.5636943980       0.0000000000     0.0000000000     0.0307948000
   Cu       0.0000000000     0.0000000000    63.4055777010       0.0000000000     0.0000000000    -0.0186317100
PRIMVEC 3
     3.9439985152    0.0000000000    0.0000000000
     0.0000000000    3.9439985152    0.0000000000
     0.0000000000    0.0000000000   78.1439497957
 PRIMCOORD 3
21 1
   Ba       1.9720000000     1.9720000000    25.8510363270       0.0000000000     0.0000000000    -0.0112473600
   Ba       1.9720000000     1.9720000000    37.6930340200       0.0000000000     0.0000000000    -0.0112872000
   Ba       1.9720000000     1.9720000000    49.5350276320       0.0000000000     0.0000000000    -0.0118107800
   Ba       1.9720000000     1.9720000000    61.3770840330       0.0000000000     0.0000000000     0.0033356800
   Ba       1.9720000000     1.9720000000    21.5169795360       0.0000000000     0.0000000000     0.0189276100
   Ba       1.9720000000     1.9720000000    33.3589989910       0.0000000000     0.0000000000     0.0240594300
   Ba       1.9720000000     1.9720000000    45.2009932580       0.0000000000     0.0000000000     0.0236618100
   Ba       1.9720000000     1.9720000000    57.0430055550       0.0000000000     0.0000000000     0.0272713300
    Y       1.9720000000     1.9720000000    17.7627346380       0.0000000000     0.0000000000    -0.0424678400
    Y       1.9720000000     1.9720000000    29.6047708920       0.0000000000     0.0000000000    -0.0360366300
    Y       1.9720000000     1.9720000000    41.4467642830       0.0000000000     0.0000000000    -0.0369469200
    Y       1.9720000000     1.9720000000    53.2887586130       0.0000000000     0.0000000000    -0.0375021500
   Cu       0.0000000000     0.0000000000    23.6839294750       0.0000000000     0.0000000000    -0.0088195000
   Cu       0.0000000000     0.0000000000    35.5259293070       0.0000000000     0.0000000000    -0.0093139900
   Cu       0.0000000000     0.0000000000    47.3679708430       0.0000000000     0.0000000000    -0.0033730100
   Cu       0.0000000000     0.0000000000    59.2099273370       0.0000000000     0.0000000000    -0.0058773200
   Cu       0.0000000000     0.0000000000    16.0379703680       0.0000000000     0.0000000000     0.0396292000
   Cu       0.0000000000     0.0000000000    27.8798624950       0.0000000000     0.0000000000     0.0300604800
   Cu       0.0000000000     0.0000000000    39.7218641120       0.0000000000     0.0000000000     0.0321062300
   Cu       0.0000000000     0.0000000000    51.5638726520       0.0000000000     0.0000000000     0.0326550600
   Cu       0.0000000000     0.0000000000    63.4054580880       0.0000000000     0.0000000000    -0.0170241100
PRIMVEC 4
     3.9439985152    0.0000000000    0.0000000000
     0.0000000000    3.9439985152    0.0000000000
     0.0000000000    0.0000000000   78.1439268771
 PRIMCOORD 4
21 1
   Ba       1.9720000000     1.9720000000    25.8509779780       0.0000000000     0.0000000000    -0.0112787900
   Ba       1.9720000000     1.9720000000    37.6929721080       0.0000000000     0.0000000000    -0.0114225100
   Ba       1.9720000000     1.9720000000    49.5349596380       0.0000000000     0.0000000000    -0.0116846800
   Ba       1.9720000000     1.9720000000    61.3770816410       0.0000000000     0.0000000000     0.0036069900
   Ba       1.9720000000     1.9720000000    21.5170578080       0.0000000000     0.0000000000     0.0187373600
   Ba       1.9720000000     1.9720000000    33.3590979240       0.0000000000     0.0000000000     0.0238470000
   Ba       1.9720000000     1.9720000000    45.2010868070       0.0000000000     0.0000000000     0.0238640800
   Ba       1.9720000000     1.9720000000    57.0431128720       0.0000000000     0.0000000000     0.0274827900
    Y       1.9720000000     1.9720000000    17.7624327790       0.0000000000     0.0000000000    -0.0429100400
    Y       1.9720000000     1.9720000000    29.6045106070       0.0000000000     0.0000000000    -0.0359588000
    Y       1.9720000000     1.9720000000    41.4464960320       0.0000000000     0.0000000000    -0.0365516000
    Y       1.9720000000     1.9720000000    53.2884825350       0.0000000000     0.0000000000    -0.0373437800
   Cu       0.0000000000     0.0000000000    23.6838440840       0.0000000000     0.0000000000    -0.0064600800
   Cu       0.0000000000     0.0000000000    35.5258345740       0.0000000000     0.0000000000    -0.0062657300
   Cu       0.0000000000     0.0000000000    47.3679340120       0.0000000000     0.0000000000    -0.0058594100
   Cu       0.0000000000     0.0000000000    59.2098485730       0.0000000000     0.0000000000    -0.0068705900
   Cu       0.0000000000     0.0000000000    16.0383611710       0.0000000000     0.0000000000     0.0428908800
   Cu       0.0000000000     0.0000000000    27.8801417760       0.0000000000     0.0000000000     0.0297545100
   Cu       0.0000000000     0.0000000000    39.7221526240       0.0000000000     0.0000000000     0.0292545800
   Cu       0.0000000000     0.0000000000    51.5641653270       0.0000000000     0.0000000000     0.0324538600
   Cu       0.0000000000     0.0000000000    63.4052702060       0.0000000000     0.0000000000    -0.0192860600
PRIMVEC 5
     3.9439985152    0.0000000000    0.0000000000
     0.0000000000    3.9439985152    0.0000000000
     0.0000000000    0.0000000000   78.1438919845
 PRIMCOORD 5
21 1
   Ba       1.9720000000     1.9720000000    25.8508965950       0.0000000000     0.0000000000    -0.0116196900
   Ba       1.9720000000     1.9720000000    37.6928851050       0.0000000000     0.0000000000    -0.0123984500
   Ba       1.9720000000     1.9720000000    49.5348642930       0.0000000000     0.0000000000    -0.0121414500
   Ba       1.9720000000     1.9720000000    61.3770759460       0.0000000000     0.0000000000     0.0036595200
   Ba       1.9720000000     1.9720000000    21.5171644700       0.0000000000     0.0000000000     0.0178059600
   Ba       1.9720000000     1.9720000000    33.3592320740       0.0000000000     0.0000000000     0.0234376900
   Ba       1.9720000000     1.9720000000    45.2012137890       0.0000000000     0.0000000000     0.0238924000
   Ba       1.9720000000     1.9720000000    57.0432579260       0.0000000000     0.0000000000     0.0271774700
    Y       1.9720000000     1.9720000000    17.7620161100       0.0000000000     0.0000000000    -0.0437232900
    Y       1.9720000000     1.9720000000    29.6041518550       0.0000000000     0.0000000000    -0.0363392800
    Y       1.9720000000     1.9720000000    41.4461259520       0.0000000000     0.0000000000    -0.0367636500
    Y       1.9720000000     1.9720000000    53.2881007450       0.0000000000     0.0000000000    -0.0373457400
   Cu       0.0000000000     0.0000000000    23.6837314560       0.0000000000     0.0000000000    -0.0031621000
   Cu       0.0000000000     0.0000000000    35.5257114990       0.0000000000     0.0000000000    -0.0031939600
   Cu       0.0000000000     0.0000000000    47.3678685090       0.0000000000     0.0000000000    -0.0064769600
   Cu       0.0000000000     0.0000000000    59.2097356280       0.0000000000     0.0000000000    -0.0097735500
   Cu       0.0000000000     0.0000000000    16.0389062670       0.0000000000     0.0000000000     0.0454771900
   Cu       0.0000000000     0.0000000000    27.8805255270       0.0000000000     0.0000000000     0.0278209100
   Cu       0.0000000000     0.0000000000    39.7225419650       0.0000000000     0.0000000000     0.0311273100
   Cu       0.0000000000     0.0000000000    51.5645687080       0.0000000000     0.0000000000     0.0297872100
   Cu       0.0000000000     0.0000000000    63.4050021260       0.0000000000     0.0000000000    -0.0172475300
PRIMVEC 6
     3.9439985152    0.0000000000    0.0000000000
     0.0000000000    3.9439985152    0.0000000000
     0.0000000000    0.0000000000   78.1438444396
 PRIMCOORD 6
21 1
   Ba       1.9720000000     1.9720000000    25.8507913750       0.0000000000     0.0000000000    -0.0115066600
   Ba       1.9720000000     1.9720000000    37.6927710310       0.0000000000     0.0000000000    -0.0119241800
   Ba       1.9720000000     1.9720000000    49.5347403960       0.0000000000     0.0000000000    -0.0120877100
   Ba       1.9720000000     1.9720000000    61.3770665020       0.0000000000     0.0000000000     0.0028250500
   Ba       1.9720000000     1.9720000000    21.5172977610       0.0000000000     0.0000000000     0.0186242600
   Ba       1.9720000000     1.9720000000    33.3594004590       0.0000000000     0.0000000000     0.0234775000
   Ba       1.9720000000     1.9720000000    45.2013738570       0.0000000000     0.0000000000     0.0236250000
   Ba       1.9720000000     1.9720000000    57.0434397050       0.0000000000     0.0000000000     0.0268407300
    Y       1.9720000000     1.9720000000    17.7614823530       0.0000000000     0.0000000000    -0.0430207300
    Y       1.9720000000     1.9720000000    29.6036933860       0.0000000000     0.0000000000    -0.0361804500
    Y       1.9720000000     1.9720000000    41.4456531290       0.0000000000     0.0000000000    -0.0367070700
    Y       1.9720000000     1.9720000000    53.2876127740       0.0000000000     0.0000000000    -0.0377326200
   Cu       0.0000000000     0.0000000000    23.6836034360       0.0000000000     0.0000000000    -0.0069318300
   Cu       0.0000000000     0.0000000000    35.5255709990       0.0000000000     0.0000000000    -0.0058865200
   Cu       0.0000000000     0.0000000000    47.3677716660       0.0000000000     0.0000000000    -0.0060903800
   Cu       0.0000000000     0.0000000000    59.2095773780       0.0000000000     0.0000000000    -0.0057742400
   Cu       0.0000000000     0.0000000000    16.0396149690       0.0000000000     0.0000000000     0.0434107900
   Cu       0.0000000000     0.0000000000    27.8810064390       0.0000000000     0.0000000000     0.0289771400
   Cu       0.0000000000     0.0000000000    39.7230386330       0.0000000000     0.0000000000     0.0294868400
   Cu       0.0000000000     0.0000000000    51.5650726010       0.0000000000     0.0000000000     0.0324692100
   Cu       0.0000000000     0.0000000000    63.4046607480       0.0000000000     0.0000000000    -0.0158941000
PRIMVEC 7
     3.9439985152    0.0000000000    0.0000000000
     0.0000000000    3.9439985152    0.0000000000
     0.0000000000    0.0000000000   78.1437920633
 PRIMCOORD 7
21 1
   Ba       1.9720000000     1.9720000000    25.8506650980       0.0000000000     0.0000000000    -0.0112659800
   Ba       1.9720000000     1.9720000000    37.6926344610       0.0000000000     0.0000000000    -0.0113374900
   Ba       1.9720000000     1.9720000000    49.5345929930       0.0000000000     0.0000000000    -0.0116103100
   Ba       1.9720000000     1.9720000000    61.3770580380       0.0000000000     0.0000000000     0.0036340100
   Ba       1.9720000000     1.9720000000    21.5174612160       0.0000000000     0.0000000000     0.0185323800
   Ba       1.9720000000     1.9720000000    33.3596064830       0.0000000000     0.0000000000     0.0237429800
   Ba       1.9720000000     1.9720000000    45.2015710810       0.0000000000     0.0000000000     0.0236381000
   Ba       1.9720000000     1.9720000000    57.0436633460       0.0000000000     0.0000000000     0.0275082500
    Y       1.9720000000     1.9720000000    17.7608351200       0.0000000000     0.0000000000    -0.0424690400
    Y       1.9720000000     1.9720000000    29.6031385760       0.0000000000     0.0000000000    -0.0359939400
    Y       1.9720000000     1.9720000000    41.4450818570       0.0000000000     0.0000000000    -0.0365356700
    Y       1.9720000000     1.9720000000    53.2870229420       0.0000000000     0.0000000000    -0.0369991500
   Cu       0.0000000000     0.0000000000    23.6834486180       0.0000000000     0.0000000000    -0.0078216500
   Cu       0.0000000000     0.0000000000    35.5254067890       0.0000000000     0.0000000000    -0.0076862600
   Cu       0.0000000000     0.0000000000    47.3676496340       0.0000000000     0.0000000000    -0.0055554900
   Cu       0.0000000000     0.0000000000    59.2093943630       0.0000000000     0.0000000000    -0.0055029000
   Cu       0.0000000000     0.0000000000    16.0404813280       0.0000000000     0.0000000000     0.0399077900
   Cu       0.0000000000     0.0000000000    27.8815915270       0.0000000000     0.0000000000     0.0314758500
   Cu       0.0000000000     0.0000000000    39.7236406070       0.0000000000     0.0000000000     0.0307534300
   Cu       0.0000000000     0.0000000000    51.5656919680       0.0000000000     0.0000000000     0.0320653700
   Cu       0.0000000000     0.0000000000    63.4042573600       0.0000000000     0.0000000000    -0.0184802800
PRIMVEC 8
     3.9439985152    0.0000000000    0.0000000000
     0.0000000000    3.9439985152    0.0000000000
     0.0000000000    0.0000000000   78.1437272240
 PRIMCOORD 8
21 1
   Ba       1.9720000000     1.9720000000    25.8505156450       0.0000000000     0.0000000000    -0.0110308300
   Ba       1.9720000000     1.9720000000    37.6924727050       0.0000000000     0.0000000000    -0.0113409900
   Ba       1.9720000000     1.9720000000    49.5344180540       0.0000000000     0.0000000000    -0.0121330500
   Ba       1.9720000000     1.9720000000    61.3770459300       0.0000000000     0.0000000000     0.0028926000
   Ba       1.9720000000     1.9720000000    21.5176525800       0.0000000000     0.0000000000     0.0186502300
   Ba       1.9720000000     1.9720000000    33.3598473390       0.0000000000     0.0000000000     0.0239405600
   Ba       1.9720000000     1.9720000000    45.2018010710       0.0000000000     0.0000000000     0.0233794500
   Ba       1.9720000000     1.9720000000    57.0439244080       0.0000000000     0.0000000000     0.0267602000
    Y       1.9720000000     1.9720000000    17.7600741180       0.0000000000     0.0000000000    -0.0424715400
    Y       1.9720000000     1.9720000000    29.6024850220       0.0000000000     0.0000000000    -0.0357441200
    Y       1.9720000000     1.9720000000    41.4444085380       0.0000000000     0.0000000000    -0.0368375100
    Y       1.9720000000     1.9720000000    53.2863279630       0.0000000000     0.0000000000    -0.0376679300
   Cu       0.0000000000     0.0000000000    23.6832614380       0.0000000000     0.0000000000    -0.0118837000
   Cu       0.0000000000     0.0000000000    35.5252088210       0.0000000000     0.0000000000    -0.0118937100
   Cu       0.0000000000     0.0000000000    47.3674997440       0.0000000000     0.0000000000    -0.0027659600
   Cu       0.0000000000     0.0000000000    59.2091817920       0.0000000000     0.0000000000    -0.0033899100
   Cu       0.0000000000     0.0000000000    16.0414909760       0.0000000000     0.0000000000     0.0418765700
   Cu       0.0000000000     0.0000000000    27.8822871990       0.0000000000     0.0000000000     0.0285918300
   Cu       0.0000000000     0.0000000000    39.7243486370       0.0000000000     0.0000000000     0.0326689800
   Cu       0.0000000000     0.0000000000    51.5664202960       0.0000000000     0.0000000000     0.0355367400
   Cu       0.0000000000     0.0000000000    63.4037763210       0.0000000000     0.0000000000    -0.0171378900
PRIMVEC 9
     3.9439985152    0.0000000000    0.0000000000
     0.0000000000    3.9439985152    0.0000000000
     0.0000000000    0.0000000000   78.1436575533
 PRIMCOORD 9
21 1
   Ba       1.9720000000     1.9720000000    25.8503459400       0.0000000000     0.0000000000    -0.0110926500
   Ba       1.9720000000     1.9720000000    37.6922894400       0.0000000000     0.0000000000    -0.0110924200
   Ba       1.9720000000     1.9720000000    49.5342195360       0.0000000000     0.0000000000    -0.0115088500
   Ba       1.9720000000     1.9720000000    61.3770349210       0.0000000000     0.0000000000     0.0035948400
   Ba       1.9720000000     1.9720000000    21.5178741530       0.0000000000     0.0000000000     0.0188299500
   Ba       1.9720000000     1.9720000000    33.3601266200       0.0000000000     0.0000000000     0.0238109000
   Ba       1.9720000000     1.9720000000    45.2020678040       0.0000000000     0.0000000000     0.0236473600
   Ba       1.9720000000     1.9720000000    57.0442272000       0.0000000000     0.0000000000     0.0273558200
    Y       1.9720000000     1.9720000000    17.7592010760       0.0000000000     0.0000000000    -0.0421499400
    Y       1.9720000000     1.9720000000    29.6017362690       0.0000000000     0.0000000000    -0.0355840700
    Y       1.9720000000     1.9720000000    41.4436364310       0.0000000000     0.0000000000    -0.0364182700
    Y       1.9720000000     1.9720000000    53.2855312960       0.0000000000     0.0000000000    -0.0369069100
   Cu       0.0000000000     0.0000000000    23.6830293630       0.0000000000     0.0000000000    -0.0086864900
   Cu       0.0000000000     0.0000000000    35.5249651920       0.0000000000     0.0000000000    -0.0079844200
   Cu       0.0000000000     0.0000000000    47.3673368190       0.0000000000     0.0000000000    -0.0048376400
   Cu       0.0000000000     0.0000000000    59.2089531740       0.0000000000     0.0000000000    -0.0048556600
   Cu       0.0000000000     0.0000000000    16.0426526760       0.0000000000     0.0000000000     0.0409126700
   Cu       0.0000000000     0.0000000000    27.8830856420       0.0000000000     0.0000000000     0.0302111600
   Cu       0.0000000000     0.0000000000    39.7251736050       0.0000000000     0.0000000000     0.0296208100
   Cu       0.0000000000     0.0000000000    51.5672753110       0.0000000000     0.0000000000     0.0326298300
   Cu       0.0000000000     0.0000000000    63.4032287300       0.0000000000     0.0000000000    -0.0194960400
PRIMVEC 10
     3.9439985152    0.0000000000    0.0000000000
     0.0000000000    3.9439985152    0.0000000000
     0.0000000000    0.0000000000   78.1435759993
 PRIMCOORD 10
21 1
   Ba       1.9720000000     1.9720000000    25.8501535450       0.0000000000     0.0000000000    -0.0120701200
   Ba       1.9720000000     1.9720000000    37.6920816860       0.0000000000     0.0000000000    -0.0119815100
   Ba       1.9720000000     1.9720000000    49.5339940220       0.0000000000     0.0000000000    -0.0114660200
   Ba       1.9720000000     1.9720000000    61.3770206580       0.0000000000     0.0000000000     0.0036085100
   Ba       1.9720000000     1.9720000000    21.5181242990       0.0000000000     0.0000000000     0.0178423400
   Ba       1.9720000000     1.9720000000    33.3604410950       0.0000000000     0.0000000000     0.0228572900
   Ba       1.9720000000     1.9720000000    45.2023676550       0.0000000000     0.0000000000     0.0236800100
   Ba       1.9720000000     1.9720000000    57.0445675790       0.0000000000     0.0000000000     0.0273729500
    Y       1.9720000000     1.9720000000    17.7582152310       0.0000000000     0.0000000000    -0.0427970400
    Y       1.9720000000     1.9720000000    29.6008900640       0.0000000000     0.0000000000    -0.0367676100
    Y       1.9720000000     1.9720000000    41.4427628920       0.0000000000     0.0000000000    -0.0363643500
    Y       1.9720000000     1.9720000000    53.2846301190       0.0000000000     0.0000000000    -0.0364393900
   Cu       0.0000000000     0.0000000000    23.6827619420       0.0000000000     0.0000000000    -0.0024020000
   Cu       0.0000000000     0.0000000000    35.5246869800       0.0000000000     0.0000000000    -0.0036335200
   Cu       0.0000000000     0.0000000000    47.3671490100       0.0000000000     0.0000000000    -0.0089960000
   Cu       0.0000000000     0.0000000000    59.2086978060       0.0000000000     0.0000000000    -0.0101653300
   Cu       0.0000000000     0.0000000000    16.0439614580       0.0000000000     0.0000000000     0.0435361000
   Cu       0.0000000000     0.0000000000    27.8839902540       0.0000000000     0.0000000000     0.0365196800
   Cu       0.0000000000     0.0000000000    39.7261007860       0.0000000000     0.0000000000     0.0317440800
   Cu       0.0000000000     0.0000000000    51.5682417350       0.0000000000     0.0000000000     0.0271016700
   Cu       0.0000000000     0.0000000000    63.4026002480       0.0000000000     0.0000000000    -0.0211797600
PRIMVEC 11
     3.9439985152    0.0000000000    0.0000000000
     0.0000000000    3.9439985152    0.0000000000
     0.0000000000    0.0000000000   78.1434787008
 PRIMCOORD 11
21 1
   Ba       1.9720000000     1.9720000000    25.8499355300       0.0000000000     0.0000000000    -0.0114993300
   Ba       1.9720000000     1.9720000000    37.6918460760       0.0000000000     0.0000000000    -0.0119058200
   Ba       1.9720000000     1.9720000000    49.5337391390       0.0000000000     0.0000000000    -0.0119411800
   Ba       1.9720000000     1.9720000000    61.3770001320       0.0000000000     0.0000000000     0.0031389000
   Ba       1.9720000000     1.9720000000    21.5184002830       0.0000000000     0.0000000000     0.0179867900
   Ba       1.9720000000     1.9720000000    33.3607875040       0.0000000000     0.0000000000     0.0233461600
   Ba       1.9720000000     1.9720000000    45.2026984450       0.0000000000     0.0000000000     0.0237349500
   Ba       1.9720000000     1.9720000000    57.0449427570       0.0000000000     0.0000000000     0.0268770900
    Y       1.9720000000     1.9720000000    17.7571140150       0.0000000000     0.0000000000    -0.0421235400
    Y       1.9720000000     1.9720000000    29.5999418520       0.0000000000     0.0000000000    -0.0358564600
    Y       1.9720000000     1.9720000000    41.4417860140       0.0000000000     0.0000000000    -0.0362776800
    Y       1.9720000000     1.9720000000    53.2836230220       0.0000000000     0.0000000000    -0.0369844300
   Cu       0.0000000000     0.0000000000    23.6824809700       0.0000000000     0.0000000000    -0.0056319700
   Cu       0.0000000000     0.0000000000    35.5243883320       0.0000000000     0.0000000000    -0.0069680800
   Cu       0.0000000000     0.0000000000    47.3669187820       0.0000000000     0.0000000000    -0.0066346700
   Cu       0.0000000000     0.0000000000    59.2083933590       0.0000000000     0.0000000000    -0.0064855800
   Cu       0.0000000000     0.0000000000    16.0454261150       0.0000000000     0.0000000000     0.0397748600
   Cu       0.0000000000     0.0000000000    27.8850227150       0.0000000000     0.0000000000     0.0292655200
   Cu       0.0000000000     0.0000000000    39.7271359750       0.0000000000     0.0000000000     0.0326717400
   Cu       0.0000000000     0.0000000000    51.5692968150       0.0000000000     0.0000000000     0.0316255300
   Cu       0.0000000000     0.0000000000    63.4018815880       0.0000000000     0.0000000000    -0.0161128000
PRIMVEC 12
     3.9439985152    0.0000000000    0.0000000000
     0.0000000000    3.9439985152    0.0000000000
     0.0000000000    0.0000000000   78.1433762752
 PRIMCOORD 12
21 1
   Ba       1.9720000000     1.9720000000    25.8496963710       0.0000000000     0.0000000000    -0.0114505900
   Ba       1.9720000000     1.9720000000    37.6915878560       0.0000000000     0.0000000000    -0.0112740600
   Ba       1.9720000000     1.9720000000    49.5334608090       0.0000000000     0.0000000000    -0.0116799100
   Ba       1.9720000000     1.9720000000    61.3769808840       0.0000000000     0.0000000000     0.0037362100
   Ba       1.9720000000     1.9720000000    21.5187052720       0.0000000000     0.0000000000     0.0183735500
   Ba       1.9720000000     1.9720000000    33.3611712030       0.0000000000     0.0000000000     0.0236044600
   Ba       1.9720000000     1.9720000000    45.2030664050       0.0000000000     0.0000000000     0.0236447300
   Ba       1.9720000000     1.9720000000    57.0453596420       0.0000000000     0.0000000000     0.0272362500
    Y       1.9720000000     1.9720000000    17.7559015990       0.0000000000     0.0000000000    -0.0425723300
    Y       1.9720000000     1.9720000000    29.5988980330       0.0000000000     0.0000000000    -0.0355395300
    Y       1.9720000000     1.9720000000    41.4407116510       0.0000000000     0.0000000000    -0.0359463800
    Y       1.9720000000     1.9720000000    53.2825158170       0.0000000000     0.0000000000    -0.0365424900
   Cu       0.0000000000     0.0000000000    23.6821778610       0.0000000000     0.0000000000    -0.0030365700
   Cu       0.0000000000     0.0000000000    35.5240618860       0.0000000000     0.0000000000    -0.0062668300
   Cu       0.0000000000     0.0000000000    47.3666611970       0.0000000000     0.0000000000    -0.0039906000
   Cu       0.0000000000     0.0000000000    59.2080613230       0.0000000000     0.0000000000    -0.0073962200
   Cu       0.0000000000     0.0000000000    16.0470350810       0.0000000000     0.0000000000     0.0430585500