
     Program PWSCF v.4.3.2      starts on 14Jan2014 at  8:28: 2 

     This program is part of the open-source Quantum ESPRESSO suite
     for quantum simulation of materials; please cite
         "P. Giannozzi et al., J. Phys.:Condens. Matter 21 395502 (2009);
          URL http://www.quantum-espresso.org", 
     in publications or presentations arising from this work. More details at
     http://www.quantum-espresso.org/wiki/index.php/Citing_Quantum-ESPRESSO

     Parallel version (MPI), running on    64 processors
     K-points division:     npool     =    4
     R & G space division:  proc/pool =   16

     Current dimensions of program PWSCF are:
     Max number of different atomic species (ntypx) = 10
     Max number of k-points (npk) =  40000
     Max angular momentum in pseudopotentials (lmaxx) =  3
     Reading input from YBCO_STO.pw.in

     Subspace diagonalization in iterative solution of the eigenvalue problem:
     parallel, distributed-memory algorithm (size of sub-group:  4*  4 procs)

     Message from routine setup:
     Dynamics, you should have no symmetries
 
     Parallelization info
     --------------------
     sticks:   dense  smooth     PW     G-vecs:    dense   smooth      PW
     Min          54      43     13                23962    17099    2795
     Max          55      44     14                24043    17170    2850
     Sum         877     697    213               384221   274243   45093
 

     Title: 
     2.YBCO_STO_PBE_from_GBRV                                                   


     bravais-lattice index     =            8
     lattice parameter (alat)  =       7.4262  a.u.
     unit-cell volume          =    8036.8827 (a.u.)^3
     number of atoms/cell      =           75
     number of atomic types    =            6
     number of electrons       =       704.00
     number of Kohn-Sham states=          422
     kinetic-energy cutoff     =      40.0000  Ry
     charge density cutoff     =     200.0000  Ry
     convergence threshold     =      2.0E-05
     mixing beta               =       0.1500
     number of iterations used =            8  local-TF  mixing
     Exchange-correlation      = SLA  PW   PBE  PBE ( 1 4 3 4 0)
     EXX-fraction              =        0.00
     nstep                     =          400


     celldm(1)=   7.426246  celldm(2)=   1.000000  celldm(3)=  19.623645
     celldm(4)=   0.000000  celldm(5)=   0.000000  celldm(6)=   0.000000

     crystal axes: (cart. coord. in units of alat)
               a(1) = (   1.000000   0.000000   0.000000 )  
               a(2) = (   0.000000   1.000000   0.000000 )  
               a(3) = (   0.000000   0.000000  19.623645 )  

     reciprocal axes: (cart. coord. in units 2 pi/alat)
               b(1) = (  1.000000  0.000000  0.000000 )  
               b(2) = (  0.000000  1.000000  0.000000 )  
               b(3) = (  0.000000  0.000000  0.050959 )  


     PseudoPot. # 1 for Ba read from file:
     ../pbe/ba_pbe_v1.uspp.F.UPF
     MD5 check sum: 3380f63c22b3abf76d74aa74136bb909
     Pseudo is Ultrasoft + core correction, Zval = 10.0
     Generated by new atomic code, or converted to UPF format
     Using radial grid of  907 points,  7 beta functions with: 
                l(1) =   0
                l(2) =   0
                l(3) =   1
                l(4) =   1
                l(5) =   2
                l(6) =   2
                l(7) =   3
     Q(r) pseudized with  6 coefficients,  rinner =    1.700   1.700   1.700
                                                       1.700   1.700   1.700
                                                       1.700

     PseudoPot. # 2 for Y  read from file:
     ../pbe/y_pbe_v1.uspp.F.UPF
     MD5 check sum: 2cf71db95cafeb975fc457bd7f14888e
     Pseudo is Ultrasoft + core correction, Zval = 11.0
     Generated by new atomic code, or converted to UPF format
     Using radial grid of  885 points,  6 beta functions with: 
                l(1) =   0
                l(2) =   0
                l(3) =   1
                l(4) =   1
                l(5) =   2
                l(6) =   2
     Q(r) pseudized with  6 coefficients,  rinner =    1.200   1.200   1.200
                                                       1.200   1.200

     PseudoPot. # 3 for Cu read from file:
     ../pbe/cu_pbe_v1.uspp.F.UPF
     MD5 check sum: dd7df6c276b3c1af358798b42dbd4e5a
     Pseudo is Ultrasoft + core correction, Zval = 19.0
     Generated by new atomic code, or converted to UPF format
     Using radial grid of  867 points,  6 beta functions with: 
                l(1) =   0
                l(2) =   0
                l(3) =   1
                l(4) =   1
                l(5) =   2
                l(6) =   2
     Q(r) pseudized with  8 coefficients,  rinner =    1.100   1.100   1.100
                                                       1.100   1.100

     PseudoPot. # 4 for O  read from file:
     ../pbe/o_pbe_v1.01.uspp.F.UPF
     MD5 check sum: 2bcb18d16ea4b960afae9ec6d52f22d2
     Pseudo is Ultrasoft + core correction, Zval =  6.0
     Generated by new atomic code, or converted to UPF format
     Using radial grid of  737 points,  5 beta functions with: 
                l(1) =   0
                l(2) =   0
                l(3) =   1
                l(4) =   1
                l(5) =   2
     Q(r) pseudized with  8 coefficients,  rinner =    0.900   0.900   0.900
                                                       0.900   0.900

     PseudoPot. # 5 for Sr read from file:
     ../pbe/sr_pbe_v1.uspp.F.UPF
     MD5 check sum: 6b418c05fbe9db5448babca5e47b7a5b
     Pseudo is Ultrasoft + core correction, Zval = 10.0
     Generated by new atomic code, or converted to UPF format
     Using radial grid of  883 points,  6 beta functions with: 
                l(1) =   0
                l(2) =   0
                l(3) =   1
                l(4) =   1
                l(5) =   2
                l(6) =   2
     Q(r) pseudized with  6 coefficients,  rinner =    1.400   1.400   1.400
                                                       1.400   1.400

     PseudoPot. # 6 for Ti read from file:
     ../pbe/ti_pbe_v1.uspp.F.UPF
     MD5 check sum: bcc8f6961b3b91f0cac3ca967d22d0fb
     Pseudo is Ultrasoft + core correction, Zval = 12.0
     Generated by new atomic code, or converted to UPF format
     Using radial grid of  851 points,  6 beta functions with: 
                l(1) =   0
                l(2) =   0
                l(3) =   1
                l(4) =   1
                l(5) =   2
                l(6) =   2
     Q(r) pseudized with  6 coefficients,  rinner =    1.000   1.000   1.000
                                                       1.000   1.000

     atomic species   valence    mass     pseudopotential
        Ba            10.00   137.32700     Ba( 1.00)
        Y             11.00    88.90585     Y ( 1.00)
        Cu            19.00    63.54600     Cu( 1.00)
        O              6.00    15.99940     O ( 1.00)
        Sr            10.00    87.62000     Sr( 1.00)
        Ti            12.00    47.88000     Ti( 1.00)

      cell mass = 264.34541 AMU 

      4 Sym.Ops. (no inversion)


   Cartesian axes

     site n.     atom                  positions (alat units)
         1           Sr  tau(   1) = (   0.5000000   0.5000000   0.4960812  )
         2           Sr  tau(   2) = (   0.5000000   0.5000000   1.4882437  )
         3           Sr  tau(   3) = (   0.5000000   0.5000000   2.4804059  )
         4           Sr  tau(   4) = (   0.5000000   0.5000000   3.4725686  )
         5           Ti  tau(   5) = (   0.0000000   0.0000000   0.0000000  )
         6           Ti  tau(   6) = (   0.0000000   0.0000000   3.9686498  )
         7           Ti  tau(   7) = (   0.0000000   0.0000000   0.9921625  )
         8           Ti  tau(   8) = (   0.0000000   0.0000000   1.9843249  )
         9           Ti  tau(   9) = (   0.0000000   0.0000000   2.9764874  )
        10           O   tau(  10) = (   0.5000000   0.0000000   0.0000000  )
        11           O   tau(  11) = (   0.5000000   0.0000000   3.9686498  )
        12           O   tau(  12) = (   0.5000000   0.0000000   0.9921625  )
        13           O   tau(  13) = (   0.5000000   0.0000000   1.9843249  )
        14           O   tau(  14) = (   0.5000000   0.0000000   2.9764874  )
        15           O   tau(  15) = (   0.0000000   0.5000000   0.0000000  )
        16           O   tau(  16) = (   0.0000000   0.5000000   3.9686498  )
        17           O   tau(  17) = (   0.0000000   0.5000000   0.9921625  )
        18           O   tau(  18) = (   0.0000000   0.5000000   1.9843249  )
        19           O   tau(  19) = (   0.0000000   0.5000000   2.9764874  )
        20           O   tau(  20) = (   0.0000000   0.0000000   0.4960812  )
        21           O   tau(  21) = (   0.0000000   0.0000000   1.4882437  )
        22           O   tau(  22) = (   0.0000000   0.0000000   2.4804059  )
        23           O   tau(  23) = (   0.0000000   0.0000000   3.4725686  )
        24           Ba  tau(  24) = (   0.5000000   0.5000000   4.5102407  )
        25           Ba  tau(  25) = (   0.5000000   0.5000000   7.4697549  )
        26           Ba  tau(  26) = (   0.5000000   0.5000000  10.4292694  )
        27           Ba  tau(  27) = (   0.5000000   0.5000000  13.3887847  )
        28           Ba  tau(  28) = (   0.5000000   0.5000000   6.3865729  )
        29           Ba  tau(  29) = (   0.5000000   0.5000000   9.3460878  )
        30           Ba  tau(  30) = (   0.5000000   0.5000000  12.3056010  )
        31           Ba  tau(  31) = (   0.5000000   0.5000000  15.2651160  )
        32           Y   tau(  32) = (   0.5000000   0.5000000   5.4484070  )
        33           Y   tau(  33) = (   0.5000000   0.5000000   8.4079218  )
        34           Y   tau(  34) = (   0.5000000   0.5000000  11.3674357  )
        35           Y   tau(  35) = (   0.5000000   0.5000000  14.3269500  )
        36           Cu  tau(  36) = (   0.0000000   0.0000000  15.8067075  )
        37           Cu  tau(  37) = (   0.0000000   0.0000000   6.9281640  )
        38           Cu  tau(  38) = (   0.0000000   0.0000000   9.8876783  )
        39           Cu  tau(  39) = (   0.0000000   0.0000000  12.8471932  )
        40           Cu  tau(  40) = (   0.0000000   0.0000000   5.0172060  )
        41           Cu  tau(  41) = (   0.0000000   0.0000000   7.9767199  )
        42           Cu  tau(  42) = (   0.0000000   0.0000000  10.9362347  )
        43           Cu  tau(  43) = (   0.0000000   0.0000000  13.8957486  )
        44           Cu  tau(  44) = (   0.0000000   0.0000000   5.8796081  )
        45           Cu  tau(  45) = (   0.0000000   0.0000000   8.8391229  )
        46           Cu  tau(  46) = (   0.0000000   0.0000000  11.7986368  )
        47           Cu  tau(  47) = (   0.0000000   0.0000000  14.7581511  )
        48           O   tau(  48) = (   0.0000000   0.0000000   4.4398046  )
        49           O   tau(  49) = (   0.0000000   0.0000000   7.3993188  )
        50           O   tau(  50) = (   0.0000000   0.0000000  10.3588328  )
        51           O   tau(  51) = (   0.0000000   0.0000000  13.3183470  )
        52           O   tau(  52) = (   0.0000000   0.0000000   6.4570095  )
        53           O   tau(  53) = (   0.0000000   0.0000000   9.4165235  )
        54           O   tau(  54) = (   0.0000000   0.0000000  12.3760387  )
        55           O   tau(  55) = (   0.0000000   0.0000000  15.3355530  )
        56           O   tau(  56) = (   0.5000000   0.0000000   5.0826108  )
        57           O   tau(  57) = (   0.5000000   0.0000000   8.0421256  )
        58           O   tau(  58) = (   0.5000000   0.0000000  11.0016400  )
        59           O   tau(  59) = (   0.5000000   0.0000000  13.9611543  )
        60           O   tau(  60) = (   0.5000000   0.0000000   5.8142028  )
        61           O   tau(  61) = (   0.5000000   0.0000000   8.7737172  )
        62           O   tau(  62) = (   0.5000000   0.0000000  11.7332315  )
        63           O   tau(  63) = (   0.5000000   0.0000000  14.6927457  )
        64           O   tau(  64) = (   0.0000000   0.5000000   5.0852746  )
        65           O   tau(  65) = (   0.0000000   0.5000000   8.0447890  )
        66           O   tau(  66) = (   0.0000000   0.5000000  11.0043038  )
        67           O   tau(  67) = (   0.0000000   0.5000000  13.9638178  )
        68           O   tau(  68) = (   0.0000000   0.5000000   5.8115390  )
        69           O   tau(  69) = (   0.0000000   0.5000000   8.7710537  )
        70           O   tau(  70) = (   0.0000000   0.5000000  11.7305677  )
        71           O   tau(  71) = (   0.0000000   0.5000000  14.6900819  )
        72           O   tau(  72) = (   0.0000000   0.5000000  15.8067075  )
        73           O   tau(  73) = (   0.0000000   0.5000000   6.9281640  )
        74           O   tau(  74) = (   0.0000000   0.5000000   9.8876783  )
        75           O   tau(  75) = (   0.0000000   0.5000000  12.8471932  )

     number of k points=     9  gaussian smearing, width (Ry)=  0.0100
                       cart. coord. in units 2pi/alat
        k(    1) = (   0.1000000   0.1000000   0.0127397), wk =   0.3200000
        k(    2) = (   0.1000000   0.3000000   0.0127397), wk =   0.3200000
        k(    3) = (   0.1000000  -0.5000000   0.0127397), wk =   0.1600000
        k(    4) = (   0.3000000   0.3000000   0.0127397), wk =   0.3200000
        k(    5) = (   0.3000000  -0.5000000   0.0127397), wk =   0.1600000
        k(    6) = (  -0.5000000  -0.5000000   0.0127397), wk =   0.0800000
        k(    7) = (   0.3000000   0.1000000  -0.0127397), wk =   0.3200000
        k(    8) = (  -0.5000000   0.1000000  -0.0127397), wk =   0.1600000
        k(    9) = (  -0.5000000   0.3000000  -0.0127397), wk =   0.1600000

     Dense  grid:   384221 G-vectors     FFT dimensions: (  36,  36, 675)

     Smooth grid:   274243 G-vectors     FFT dimensions: (  30,  30, 600)

     Largest allocated arrays     est. size (Mb)     dimensions
        Kohn-Sham Wavefunctions        14.15 Mb     (   2197,  422)
        NL pseudopotentials            40.09 Mb     (   2197, 1196)
        Each V/rho on FFT grid          0.85 Mb     (  55728)
        Each G-vector array             0.18 Mb     (  24019)
        G-vector shells                 0.18 Mb     (  24019)
     Largest temporary arrays     est. size (Mb)     dimensions
        Auxiliary wavefunctions        56.59 Mb     (   2197, 1688)
        Each subspace H/S matrix        2.72 Mb     ( 422, 422)
        Each <psi_i|beta_j> matrix      7.70 Mb     (   1196,  422)
        Arrays for rho mixing           6.80 Mb     (  55728,   8)
     writing wfc files to a dedicated directory

     Check: negative/imaginary core charge=   -0.000021    0.000000

     Initial potential from superposition of free atoms
     Check: negative starting charge=   -1.230758

     starting charge  686.72721, renormalised to  704.00000

     negative rho (up, down):  0.126E+01 0.000E+00
     Starting wfc are  582 atomic wfcs

     total cpu time spent up to now is       82.9 secs

     per-process dynamical memory:   131.0 Mb

     Self-consistent Calculation

     iteration #  1     ecut=    40.00 Ry     beta=0.15
     Davidson diagonalization with overlap
     ethr =  1.00E-02,  avg # of iterations = 12.6

     negative rho (up, down):  0.171E+01 0.000E+00

     total cpu time spent up to now is      728.1 secs

     total energy              =   -8366.72983792 Ry
     Harris-Foulkes estimate   =   -8715.63379995 Ry
     estimated scf accuracy    <  407788.35601948 Ry

     iteration #  2     ecut=    40.00 Ry     beta=0.15
     Davidson diagonalization with overlap
     ethr =  1.00E-02,  avg # of iterations =  9.7

     negative rho (up, down):  0.493E+01 0.000E+00

     total cpu time spent up to now is     1052.0 secs

     total energy              =   -7805.80073197 Ry
     Harris-Foulkes estimate   =   -8446.43869157 Ry
     estimated scf accuracy    <  308078.80356184 Ry

     iteration #  3     ecut=    40.00 Ry     beta=0.15
     Davidson diagonalization with overlap
     ethr =  1.00E-02,  avg # of iterations =  9.9

     negative rho (up, down):  0.598E+01 0.000E+00

     total cpu time spent up to now is     1694.8 secs

     total energy              =   -8004.92557765 Ry
     Harris-Foulkes estimate   =   -8088.33393888 Ry
     estimated scf accuracy    <   35200.25468861 Ry

     iteration #  4     ecut=    40.00 Ry     beta=0.15
     Davidson diagonalization with overlap
     ethr =  1.00E-02,  avg # of iterations = 18.0

     negative rho (up, down):  0.515E+01 0.000E+00

     total cpu time spent up to now is     2216.8 secs

     total energy              =   -8025.70195536 Ry
     Harris-Foulkes estimate   =   -8058.35681732 Ry
     estimated scf accuracy    <     573.67826348 Ry

     iteration #  5     ecut=    40.00 Ry     beta=0.15
     Davidson diagonalization with overlap
     ethr =  1.00E-02,  avg # of iterations =  1.3

     negative rho (up, down):  0.283E+01 0.000E+00

     total cpu time spent up to now is     2346.7 secs

     total energy              =   -7954.94384251 Ry
     Harris-Foulkes estimate   =   -8027.68623855 Ry
     estimated scf accuracy    <     400.47642614 Ry

     iteration #  6     ecut=    40.00 Ry     beta=0.15
     Davidson diagonalization with overlap
     ethr =  1.00E-02,  avg # of iterations =  4.1

     negative rho (up, down):  0.283E+01 0.000E+00

     total cpu time spent up to now is     2569.1 secs

     total energy              =   -7998.76183783 Ry
     Harris-Foulkes estimate   =   -7998.76284705 Ry
     estimated scf accuracy    <   12432.33510579 Ry

     iteration #  7     ecut=    40.00 Ry     beta=0.15
     Davidson diagonalization with overlap
     ethr =  1.00E-02,  avg # of iterations =  1.8

     negative rho (up, down):  0.299E+01 0.000E+00

     total cpu time spent up to now is     2704.9 secs

     total energy              =   -7991.81018374 Ry
     Harris-Foulkes estimate   =   -7999.05907822 Ry
     estimated scf accuracy    <   12778.19018038 Ry

     iteration #  8     ecut=    40.00 Ry     beta=0.15
     Davidson diagonalization with overlap
     ethr =  1.00E-02,  avg # of iterations =  1.0

     negative rho (up, down):  0.294E+01 0.000E+00

     total cpu time spent up to now is     2843.0 secs

     total energy              =   -7995.14582633 Ry
     Harris-Foulkes estimate   =   -7993.27819676 Ry
     estimated scf accuracy    <    6725.07280098 Ry

     iteration #  9     ecut=    40.00 Ry     beta=0.15
     Davidson diagonalization with overlap
     ethr =  1.00E-02,  avg # of iterations =  1.0

     negative rho (up, down):  0.294E+01 0.000E+00

     total cpu time spent up to now is     2979.7 secs

     total energy              =   -7988.45897018 Ry
     Harris-Foulkes estimate   =   -7995.33964409 Ry
     estimated scf accuracy    <    8225.15753945 Ry

     iteration # 10     ecut=    40.00 Ry     beta=0.15
     Davidson diagonalization with overlap
     ethr =  1.00E-02,  avg # of iterations =  1.0

     negative rho (up, down):  0.297E+01 0.000E+00

     total cpu time spent up to now is     3123.4 secs

          k = 0.1000 0.1000 0.0127     band energies (ev):

  -122.2524-120.0705-119.3509-118.9764-118.8054-117.8210-116.6411-114.6873
  -113.5093-113.3614-113.3044-111.2411 -79.8965 -79.8794 -79.8774 -77.7362
   -77.7137 -77.6695 -76.9017 -76.8931 -76.5474 -76.5468 -76.4585 -76.4207
   -76.3353 -76.2247 -76.2234 -75.5111 -75.4526 -75.4487 -74.3364 -74.2730
   -74.2508 -72.3865 -72.3580 -72.3206 -71.1875 -71.1797 -71.0838 -71.0687
   -71.0220 -70.9968 -70.9353 -70.8639 -70.6409 -68.9528 -68.9381 -68.7743
   -61.3650 -58.6706 -58.5996 -58.3510 -57.9447 -48.1488 -43.5779 -42.5276
   -41.7186 -40.5054 -40.0169 -38.4070 -38.2546 -38.0930 -37.9863 -37.9763
   -35.6372 -35.6266 -35.4871 -35.3307 -35.3215 -35.2794 -35.2776 -35.2540
   -34.9801 -34.9193 -34.7345 -34.6809 -34.6065 -34.4186 -30.6974 -28.8588
   -28.6709 -28.2873 -28.2749 -28.0359 -27.5391 -27.0342 -26.8402 -26.7186
   -26.5499 -25.9739 -25.8073 -25.7467 -25.7371 -25.6874 -25.6124 -25.5064
   -25.4067 -25.0232 -25.0109 -24.8479 -24.5684 -24.5568 -24.4785 -24.4152
   -24.3091 -24.2479 -24.1659 -24.1215 -24.0196 -23.9689 -23.8828 -23.8124
   -23.7055 -23.5328 -23.4487 -23.3555 -22.6529 -22.5662 -22.5456 -22.4873
   -22.3844 -22.2919 -22.2293 -21.5449 -20.7641 -20.7489 -20.6492 -20.4698
   -20.3962 -20.0548 -19.9977 -19.9628 -19.8041 -19.8024 -19.7133 -19.6964
   -19.6069 -19.4811 -19.4617 -19.4204 -19.3028 -19.1041 -19.0094 -18.7752
   -18.5604 -18.4482 -18.4208 -18.1461 -18.0018 -17.9416 -17.9165 -17.8377
   -17.6620 -17.5831 -17.4852 -17.0808 -15.8817 -15.8267 -15.6687 -13.1354
   -13.0365 -13.0042 -12.9422 -12.8878 -12.8657 -12.7945 -12.7864 -12.7357
   -12.6480 -12.6411 -12.5937 -12.5390 -12.4397 -12.3772 -12.3021 -12.2664
   -12.2447 -12.1982 -12.1428 -12.1412 -12.1187 -12.1048 -12.1024 -12.0541
   -12.0079 -11.9491 -11.9010 -11.8869 -11.8700 -11.7881 -11.7514 -11.7338
   -11.5850 -11.4947 -11.4626 -11.3796 -11.2811 -11.2727 -11.2560 -11.1662
   -11.1144 -11.0509 -10.9499 -10.8524 -10.8140 -10.7942 -10.7586 -10.6893
   -10.6528 -10.6133 -10.5286 -10.4958 -10.4646 -10.4601 -10.4540 -10.4275
   -10.3801 -10.3247 -10.3058 -10.2522 -10.0850 -10.0546 -10.0103  -9.9526
    -9.8836  -9.8446  -9.8352  -9.7421  -9.7320  -9.7280  -9.6917  -9.6438
    -9.6280  -9.6251  -9.5852  -9.5658  -9.4702  -9.4522  -9.4155  -9.3957
    -9.3881  -9.3384  -9.2631  -9.2352  -9.1859  -9.1147  -9.0719  -8.9816
    -8.9777  -8.8868  -8.8687  -8.8441  -8.8220  -8.6595  -8.6439  -8.6316
    -8.6164  -8.5996  -8.5983  -8.4917  -8.3299  -8.2537  -8.0931  -8.0704
    -7.9076  -7.8670  -7.7596  -7.5951  -7.5327  -7.4339  -7.3778  -7.3098
    -7.2240  -7.1976  -7.0687  -7.0089  -6.9417  -6.9398  -6.8283  -6.6885
    -6.6708  -6.6654  -6.5533  -6.3114  -6.2364  -6.2129  -6.1780  -5.9939
    -5.8445  -5.8307  -5.8110  -5.7717  -5.7525  -5.7112  -5.5857  -5.4476
    -5.3142  -5.2520  -5.2288  -5.2014  -5.1647  -5.1393  -5.0279  -4.9855
    -4.9316  -4.9049  -4.8559  -4.8256  -4.7994  -4.7280  -4.5760  -4.5277
    -4.5134  -4.4162  -4.3617  -4.3207  -4.2770  -4.2468  -4.1849  -4.0918
    -4.0866  -4.0618  -3.9999  -3.9647  -3.9348  -3.9198  -3.8857  -3.8188
    -3.8098  -3.7929  -3.7893  -3.6931  -3.5460  -3.5242  -3.5058  -3.3786
    -3.3621  -3.3174  -3.3121  -3.2592  -3.1859  -3.1655  -3.1243  -3.1014
    -3.0825  -3.0737  -3.0453  -3.0056  -2.9897  -2.9759  -2.9364  -2.8374
    -2.8067  -2.7582  -2.7046  -2.6908  -2.6800  -2.5650  -2.5548  -2.5436
    -2.5314  -2.4675  -2.4113  -2.3892  -2.3399  -2.2950  -2.2477  -2.2409
    -2.2177  -2.1886  -2.1549  -2.1330  -2.0460  -2.0257  -1.9802  -1.9419
    -1.9228  -1.8455  -1.8450  -1.8241  -1.7592  -1.7174  -1.6612  -1.6115
    -1.5880  -1.5630  -1.4678  -1.3773  -1.3168  -1.2673  -1.1837  -1.1634
    -1.1612  -1.0807  -0.9343  -0.9261  -0.8485  -0.6018  -0.5788  -0.4209
    -0.3532  -0.2926  -0.2436  -0.2268  -0.1206  -0.0362   0.0856   0.2034
     0.2502   0.2796   0.3559   0.3879   0.4803   0.5572   0.5956   0.7440
     0.9914   1.1831   1.4145   1.4824   2.0256   2.7306

          k = 0.1000 0.3000 0.0127     band energies (ev):

  -122.2524-120.0704-119.3509-118.9764-118.8055-117.8209-116.6410-114.6873
  -113.5093-113.3614-113.3042-111.2410 -79.8965 -79.8794 -79.8774 -77.7361
   -77.7137 -77.6694 -76.9017 -76.8931 -76.5474 -76.5467 -76.4585 -76.4207
   -76.3353 -76.2247 -76.2234 -75.5111 -75.4526 -75.4487 -74.3364 -74.2729
   -74.2508 -72.3864 -72.3579 -72.3206 -71.1875 -71.1796 -71.0838 -71.0687
   -71.0220 -70.9968 -70.9353 -70.8639 -70.6409 -68.9527 -68.9381 -68.7743
   -61.3641 -58.6700 -58.5984 -58.3491 -57.9430 -48.1427 -43.5701 -42.5160
   -41.7064 -40.4923 -40.0107 -38.3933 -38.2479 -38.0899 -38.0600 -37.9734
   -35.7669 -35.6265 -35.5909 -35.3267 -35.3263 -35.3179 -35.2775 -35.2528
   -35.0663 -34.9774 -34.7337 -34.6762 -34.5500 -34.3670 -30.6380 -28.8284
   -28.5986 -28.5288 -28.2728 -28.0015 -27.4729 -26.9764 -26.7439 -26.4375
   -26.3496 -26.0744 -25.7328 -25.6835 -25.6176 -25.5741 -25.4947 -25.4011
   -25.3453 -24.9183 -24.8968 -24.7664 -24.7321 -24.5215 -24.4661 -24.4646
   -24.3452 -24.2669 -24.0993 -24.0540 -24.0027 -23.9649 -23.8980 -23.7888
   -23.6045 -23.5189 -23.4895 -22.9753 -22.7921 -22.6331 -22.4529 -22.4059
   -22.3615 -22.2069 -22.1971 -21.3278 -20.8505 -20.5451 -20.4960 -20.4878
   -20.4596 -20.1369 -20.0019 -19.9215 -19.8425 -19.6794 -19.5811 -19.5732
   -19.5553 -19.5295 -19.5068 -19.4437 -19.3247 -19.2559 -19.2335 -18.6717
   -18.5630 -18.4959 -18.3770 -18.2571 -18.1071 -18.0389 -17.8399 -17.7375
   -17.6044 -17.5053 -17.1501 -17.1199 -15.9361 -15.8220 -15.6201 -13.6103
   -13.4624 -13.4001 -13.0745 -13.0256 -13.0130 -12.9930 -12.9453 -12.8887
   -12.8692 -12.7833 -12.7157 -12.6836 -12.6466 -12.5336 -12.3795 -12.3602
   -12.3544 -12.3380 -12.3132 -12.2637 -12.2376 -12.1930 -12.1622 -12.1575
   -12.1446 -12.1403 -12.1323 -12.0089 -11.9775 -11.9713 -11.9361 -11.9119
   -11.8812 -11.7738 -11.7597 -11.6915 -11.5911 -11.5911 -11.4782 -11.4295
   -11.3541 -11.3380 -11.2958 -11.2558 -11.2100 -11.1579 -11.1074 -11.0474
   -11.0257 -10.9628 -10.8983 -10.8673 -10.8122 -10.7803 -10.7406 -10.7299
   -10.6387 -10.5973 -10.5576 -10.5253 -10.4059 -10.3325 -10.2919 -10.2325
   -10.1851 -10.1671 -10.0984 -10.0480  -9.9767  -9.9228  -9.9109  -9.8928
    -9.8781  -9.7759  -9.7758  -9.7452  -9.7413  -9.5577  -9.5346  -9.4745
    -9.3419  -9.3415  -9.2370  -9.2362  -9.1976  -9.1571  -9.1341  -9.0208
    -8.9401  -8.9120  -8.8857  -8.8555  -8.7903  -8.6968  -8.6851  -8.5711
    -8.4939  -8.4630  -8.3149  -8.1528  -8.1368  -7.8773  -7.8079  -7.7642
    -7.7406  -7.6339  -7.6317  -7.6154  -7.5710  -7.5605  -7.4675  -7.4273
    -7.3026  -7.2483  -7.1915  -7.1478  -7.0915  -7.0804  -6.9769  -6.9082
    -6.8606  -6.6956  -6.6925  -6.5983  -6.5947  -6.5734  -6.4479  -6.3803
    -6.2340  -6.1948  -6.1545  -5.9166  -5.8988  -5.7591  -5.7151  -5.6825
    -5.5932  -5.5810  -5.4501  -5.2573  -5.1492  -5.0595  -5.0462  -4.9302
    -4.9180  -4.9074  -4.8627  -4.8131  -4.7754  -4.7189  -4.6732  -4.6596
    -4.5571  -4.4048  -4.3249  -4.1740  -4.0244  -3.9269  -3.8740  -3.8352
    -3.7780  -3.7461  -3.7203  -3.6972  -3.6618  -3.5993  -3.5933  -3.5574
    -3.4920  -3.4228  -3.3738  -3.2773  -3.1962  -3.1818  -3.1768  -3.1217
    -3.0463  -3.0107  -2.9481  -2.9447  -2.8770  -2.8542  -2.7966  -2.7009
    -2.6761  -2.6699  -2.6527  -2.6365  -2.6061  -2.5815  -2.5760  -2.5566
    -2.5101  -2.4526  -2.4275  -2.3270  -2.2763  -2.2160  -2.1808  -2.1576
    -2.1365  -2.0967  -2.0665  -2.0263  -1.9232  -1.9117  -1.9028  -1.8431
    -1.8293  -1.8255  -1.7615  -1.7435  -1.7061  -1.6142  -1.5983  -1.5758
    -1.5232  -1.4842  -1.4095  -1.3544  -1.3483  -1.2776  -1.2655  -1.1934
    -1.1880  -1.1260  -1.0517  -0.9966  -0.9354  -0.8037  -0.6736  -0.6331
    -0.5700  -0.4879  -0.4779  -0.4487  -0.3516  -0.3063  -0.2683  -0.1356
    -0.0584  -0.0038   0.1221   0.2062   0.3159   0.3490   0.3823   0.4244
     0.5145   0.6972   0.7302   0.8243   0.8651   1.1036   1.2621   1.4499
     1.4716   1.5812   1.6566   2.0464   2.4750   2.8520

          k = 0.1000-0.5000 0.0127     band energies (ev):

  -122.2523-120.0703-119.3509-118.9764-118.8055-117.8209-116.6410-114.6872
  -113.5092-113.3613-113.3042-111.2410 -79.8965 -79.8792 -79.8774 -77.7361
   -77.7136 -77.6693 -76.9017 -76.8931 -76.5473 -76.5467 -76.4585 -76.4207
   -76.3353 -76.2247 -76.2234 -75.5111 -75.4526 -75.4486 -74.3364 -74.2727
   -74.2508 -72.3864 -72.3579 -72.3206 -71.1875 -71.1796 -71.0837 -71.0687
   -71.0219 -70.9968 -70.9353 -70.8639 -70.6408 -68.9527 -68.9381 -68.7743
   -61.3636 -58.6696 -58.5976 -58.3479 -57.9420 -48.1389 -43.5654 -42.5087
   -41.6988 -40.4841 -40.0069 -38.3848 -38.2437 -38.1046 -38.0879 -37.9716
   -35.8435 -35.6527 -35.6264 -35.3560 -35.3241 -35.3157 -35.2763 -35.2521
   -35.1526 -34.9757 -34.7332 -34.6733 -34.5142 -34.3346 -30.6004 -28.8095
   -28.7360 -28.4719 -28.2654 -27.9799 -27.4307 -26.9398 -26.8408 -26.4074
   -26.1481 -26.0180 -25.6963 -25.6429 -25.5394 -25.5383 -25.4932 -25.3027
   -25.1078 -25.0963 -24.9951 -24.7924 -24.5368 -24.5067 -24.4881 -24.3421
   -24.3004 -24.2531 -24.0359 -24.0076 -23.9834 -23.8450 -23.7762 -23.7659
   -23.6504 -23.6271 -23.3865 -23.0905 -22.8287 -22.6089 -22.4804 -22.4096
   -22.3315 -22.1337 -22.0256 -21.1586 -20.9081 -20.7016 -20.4869 -20.3909
   -20.3578 -20.0568 -19.9915 -19.8009 -19.7933 -19.6609 -19.6507 -19.6231
   -19.5798 -19.4830 -19.4375 -19.3723 -19.3595 -19.3283 -19.1871 -18.6954
   -18.6097 -18.5512 -18.4387 -18.2902 -18.2365 -18.1415 -17.8072 -17.5880
   -17.5476 -17.4847 -17.1406 -16.9147 -15.9333 -15.7968 -15.6414 -14.0158
   -13.7427 -13.7013 -13.2090 -13.1642 -13.1162 -13.0740 -13.0181 -12.9954
   -12.8857 -12.8714 -12.8578 -12.8569 -12.7045 -12.6858 -12.5394 -12.5251
   -12.4874 -12.4244 -12.3861 -12.3838 -12.3122 -12.3012 -12.2753 -12.2598
   -12.2550 -12.2308 -12.2036 -12.1830 -12.1540 -12.1524 -12.0911 -12.0533
   -11.9896 -11.9402 -11.9224 -11.9204 -11.8451 -11.8418 -11.8001 -11.7292
   -11.6613 -11.5907 -11.5141 -11.4320 -11.4209 -11.1702 -11.1679 -11.0717
   -11.0200 -10.9819 -10.9749 -10.9713 -10.9358 -10.8386 -10.8161 -10.7928
   -10.7907 -10.7834 -10.7531 -10.6159 -10.5272 -10.4857 -10.3979 -10.3779
   -10.2624 -10.2607 -10.2429 -10.1575 -10.1489 -10.0665 -10.0334 -10.0328
    -9.9122  -9.8843  -9.8427  -9.7882  -9.7672  -9.6118  -9.5857  -9.5147
    -9.3523  -9.3342  -9.2714  -9.2563  -9.1933  -9.1842  -9.0434  -9.0191
    -8.9530  -8.8255  -8.8241  -8.7762  -8.7264  -8.7226  -8.6475  -8.6284
    -8.4363  -8.4091  -8.3622  -8.2465  -8.1693  -8.0470  -7.8843  -7.8337
    -7.6749  -7.5977  -7.5695  -7.5504  -7.4561  -7.4538  -7.4301  -7.3706
    -7.3516  -7.3507  -7.2842  -7.2564  -7.2287  -7.1254  -7.1166  -7.0878
    -7.0023  -6.9347  -6.8332  -6.7152  -6.6304  -6.5880  -6.4706  -6.2969
    -6.2278  -6.2184  -6.1027  -6.0963  -6.0928  -5.9750  -5.9118  -5.9071
    -5.5923  -5.4703  -5.4412  -5.2839  -5.2580  -5.1578  -5.1469  -5.0817
    -4.9023  -4.8986  -4.8701  -4.8494  -4.8335  -4.7504  -4.7427  -4.6417
    -4.5703  -4.4693  -4.3267  -4.2828  -4.0838  -3.9536  -3.9411  -3.8799
    -3.8109  -3.8079  -3.8005  -3.5411  -3.5341  -3.4371  -3.3401  -3.3047
    -3.2785  -3.2351  -3.2214  -3.1222  -2.9691  -2.9244  -2.9156  -2.8668
    -2.8647  -2.8415  -2.7697  -2.7646  -2.7458  -2.6820  -2.6492  -2.5665
    -2.4655  -2.4152  -2.3943  -2.3631  -2.3177  -2.2640  -2.2609  -2.2131
    -2.1887  -2.1647  -2.1367  -2.0502  -2.0230  -2.0097  -1.9940  -1.9154
    -1.8277  -1.7357  -1.6878  -1.6432  -1.6142  -1.5731  -1.5503  -1.5047
    -1.4246  -1.3770  -1.3624  -1.3602  -1.2989  -1.2865  -1.2760  -1.2121
    -1.1315  -1.0924  -1.0868  -1.0530  -1.0193  -0.9423  -0.8714  -0.8245
    -0.8009  -0.7834  -0.7550  -0.6661  -0.6443  -0.5913  -0.3581  -0.3457
    -0.2654  -0.2053  -0.0742  -0.0267  -0.0101   0.0528   0.1461   0.1557
     0.1651   0.1798   0.3100   0.3598   0.5210   0.6341   0.7033   0.7454
     0.8331   0.8631   0.9329   1.1648   1.5044   1.5518   1.6628   1.6847
     1.8419   1.8623   1.9735   2.1859   2.9286   3.1236

          k = 0.3000 0.3000 0.0127     band energies (ev):

  -122.2524-120.0704-119.3509-118.9764-118.8055-117.8209-116.6410-114.6872
  -113.5093-113.3614-113.3042-111.2410 -79.8965 -79.8793 -79.8773 -77.7361
   -77.7136 -77.6694 -76.9017 -76.8931 -76.5474 -76.5467 -76.4585 -76.4207
   -76.3352 -76.2247 -76.2234 -75.5111 -75.4526 -75.4487 -74.3364 -74.2729
   -74.2508 -72.3864 -72.3579 -72.3206 -71.1875 -71.1796 -71.0838 -71.0687
   -71.0220 -70.9968 -70.9353 -70.8639 -70.6409 -68.9527 -68.9381 -68.7743
   -61.3633 -58.6694 -58.5972 -58.3477 -57.9416 -48.1366 -43.5624 -42.5044
   -41.6942 -40.4791 -40.0046 -38.3793 -38.2412 -38.0865 -38.0570 -38.0470
   -35.7642 -35.6236 -35.5890 -35.4587 -35.4240 -35.3269 -35.3250 -35.2485
   -35.0629 -34.9731 -34.8289 -34.7319 -34.4986 -34.3224 -30.5855 -28.7987
   -28.5878 -28.5494 -28.4247 -27.9682 -27.4148 -26.9235 -26.4970 -26.1468
   -26.0579 -25.9613 -25.7203 -25.5885 -25.5053 -25.4495 -25.3447 -25.3385
   -25.1459 -24.9039 -24.7494 -24.6631 -24.6234 -24.5103 -24.4487 -24.4245
   -24.3863 -24.3704 -24.2855 -24.1367 -23.9206 -23.8848 -23.8642 -23.7754
   -23.7182 -23.5558 -23.5290 -22.7291 -22.6601 -22.5648 -22.5359 -22.4600
   -22.3595 -22.3565 -22.0444 -21.1509 -21.0082 -20.4890 -20.4830 -20.4433
   -20.4196 -20.3477 -20.1585 -20.0138 -19.9310 -19.7973 -19.7883 -19.7405
   -19.5713 -19.5306 -19.5258 -19.4731 -19.4154 -19.2595 -19.2308 -19.0938
   -18.5344 -18.5021 -18.2634 -18.0226 -18.0181 -17.9943 -17.8039 -17.5910
   -17.5278 -17.4549 -17.1808 -16.9967 -16.2417 -15.8968 -15.8519 -13.8959
   -13.6368 -13.5605 -13.3279 -13.3005 -13.2874 -13.2426 -13.1697 -12.9987
   -12.9777 -12.9374 -12.9199 -12.9028 -12.7504 -12.6969 -12.6906 -12.5729
   -12.5528 -12.5176 -12.4551 -12.4357 -12.4280 -12.4037 -12.3475 -12.2989
   -12.2875 -12.2780 -12.2555 -12.2453 -12.2063 -12.2037 -12.1746 -12.1601
   -12.0635 -11.9619 -11.9128 -11.8702 -11.8459 -11.8158 -11.7931 -11.7284
   -11.6510 -11.5785 -11.5218 -11.4396 -11.4309 -11.3783 -11.3333 -11.2213
   -11.1695 -11.1086 -11.0969 -11.0946 -11.0655 -10.9912 -10.8993 -10.7916
   -10.7796 -10.7014 -10.6318 -10.5513 -10.4906 -10.4704 -10.4483 -10.2220
   -10.2088 -10.1713 -10.1423 -10.0331 -10.0299  -9.9723  -9.9683  -9.9569
    -9.9091  -9.8882  -9.7707  -9.7412  -9.6520  -9.6465  -9.6439  -9.5721
    -9.5610  -9.3175  -9.3166  -9.1337  -9.1234  -9.0069  -8.9774  -8.8931
    -8.8352  -8.8028  -8.6475  -8.6462  -8.5439  -8.4056  -8.3390  -8.3016
    -8.2733  -8.0987  -8.0519  -8.0080  -7.9354  -7.8602  -7.6923  -7.6796
    -7.6780  -7.6362  -7.5550  -7.5364  -7.4939  -7.4742  -7.4545  -7.4350
    -7.3714  -7.1910  -7.1168  -7.1076  -7.1075  -7.0746  -7.0330  -7.0153
    -6.9970  -6.9254  -6.8756  -6.8563  -6.5770  -6.3556  -6.3356  -6.2854
    -6.2724  -6.2587  -6.2556  -6.2427  -6.0805  -5.9533  -5.7458  -5.6291
    -5.5870  -5.5052  -5.4355  -5.3601  -5.3390  -5.2899  -5.1646  -5.0804
    -5.0717  -5.0520  -5.0007  -4.8282  -4.7483  -4.7032  -4.6335  -4.5504
    -4.4587  -4.4386  -4.4255  -4.3304  -4.2803  -4.2301  -3.8287  -3.7542
    -3.6576  -3.6068  -3.4966  -3.3590  -3.3448  -3.3362  -3.3104  -3.2207
    -3.1326  -3.0863  -3.0667  -3.0429  -2.9989  -2.9658  -2.9474  -2.8798
    -2.8726  -2.8431  -2.6865  -2.6554  -2.6429  -2.5583  -2.5267  -2.5180
    -2.5050  -2.4509  -2.4454  -2.4119  -2.3755  -2.3466  -2.3425  -2.2189
    -2.1790  -2.1622  -2.1401  -2.1028  -2.0646  -2.0448  -1.9827  -1.9555
    -1.9505  -1.9497  -1.9274  -1.8799  -1.7839  -1.7676  -1.7441  -1.6248
    -1.6083  -1.5743  -1.4931  -1.4906  -1.4323  -1.3534  -1.2819  -1.2563
    -1.1807  -1.1509  -1.1271  -1.0448  -1.0048  -0.9880  -0.9068  -0.8545
    -0.8270  -0.7760  -0.7132  -0.6298  -0.6087  -0.5872  -0.5257  -0.2835
    -0.2687  -0.2024  -0.1148  -0.1041  -0.0298   0.0698   0.1290   0.1573
     0.2713   0.3817   0.3943   0.5501   0.5543   0.5877   0.8070   0.8344
     0.8446   1.0405   1.0458   1.0700   1.4330   1.5342   1.6029   2.0106
     2.0885   2.5903   2.7580   2.8225   3.0768   3.3537

          k = 0.3000-0.5000 0.0127     band energies (ev):

  -122.2523-120.0703-119.3509-118.9764-118.8055-117.8209-116.6410-114.6872
  -113.5092-113.3613-113.3041-111.2410 -79.8965 -79.8792 -79.8773 -77.7361
   -77.7136 -77.6693 -76.9017 -76.8931 -76.5474 -76.5467 -76.4585 -76.4207
   -76.3352 -76.2247 -76.2234 -75.5111 -75.4526 -75.4486 -74.3364 -74.2727
   -74.2508 -72.3864 -72.3579 -72.3206 -71.1875 -71.1796 -71.0837 -71.0687
   -71.0219 -70.9968 -70.9352 -70.8639 -70.6408 -68.9527 -68.9381 -68.7743
   -61.3628 -58.6691 -58.5965 -58.3470 -57.9407 -48.1329 -43.5577 -42.4973
   -41.6868 -40.4710 -40.0008 -38.3707 -38.2371 -38.1013 -38.0844 -38.0451
   -35.8415 -35.6518 -35.6218 -35.4569 -35.4227 -35.3550 -35.3260 -35.2458
   -35.1497 -34.9702 -34.8266 -34.7308 -34.4680 -34.2943 -30.5535 -28.7819
   -28.7113 -28.5614 -28.3589 -27.9493 -27.3797 -26.8931 -26.4184 -26.0206
   -25.9700 -25.6176 -25.5680 -25.5489 -25.5046 -25.4342 -25.3368 -25.2395
   -25.0070 -24.9867 -24.9219 -24.6540 -24.5199 -24.4503 -24.4402 -24.3852
   -24.3501 -24.2505 -24.2164 -24.1448 -23.8928 -23.8525 -23.8060 -23.7461
   -23.6437 -23.6199 -23.5966 -22.9468 -22.6696 -22.6105 -22.5422 -22.5216
   -22.3158 -22.1392 -21.9256 -21.0728 -21.0344 -20.6574 -20.5414 -20.4271
   -20.3719 -20.2029 -20.1734 -20.0779 -19.9747 -19.8072 -19.7539 -19.7423
   -19.7421 -19.5740 -19.5699 -19.4903 -19.4410 -19.3139 -19.2751 -18.8090
   -18.5999 -18.4772 -18.2964 -18.2028 -18.1669 -17.9258 -17.6264 -17.5561
   -17.4846 -17.4842 -17.0470 -16.8565 -16.2939 -16.1411 -15.8769 -14.2438
   -14.0261 -13.6004 -13.4343 -13.4259 -13.3206 -13.2742 -13.2643 -13.2432
   -13.1731 -13.0991 -13.0983 -13.0331 -13.0135 -12.9705 -12.9147 -12.8719
   -12.7593 -12.6392 -12.6211 -12.5525 -12.5509 -12.5052 -12.4998 -12.4971
   -12.4940 -12.4612 -12.3958 -12.3729 -12.3351 -12.2699 -12.2552 -12.2360
   -12.1944 -12.1734 -12.1130 -12.0547 -11.9974 -11.9196 -11.8449 -11.8371
   -11.7955 -11.7168 -11.6906 -11.6363 -11.5370 -11.4919 -11.4425 -11.3714
   -11.3165 -11.2640 -11.2218 -11.1556 -11.1229 -11.1207 -10.9150 -10.8203
   -10.8135 -10.7909 -10.7131 -10.6541 -10.6061 -10.5231 -10.4054 -10.2297
   -10.1861 -10.1461 -10.0924 -10.0736 -10.0672 -10.0009  -9.9473  -9.9131
    -9.8925  -9.8664  -9.7856  -9.7724  -9.7078  -9.6751  -9.6664  -9.5586
    -9.5572  -9.3078  -9.1624  -9.1521  -9.1084  -8.9946  -8.9867  -8.8245
    -8.7952  -8.7143  -8.6344  -8.5084  -8.5028  -8.4427  -8.3701  -8.3679
    -8.2050  -8.1787  -8.1258  -8.0613  -7.9854  -7.7383  -7.7325  -7.6378
    -7.5669  -7.5556  -7.5499  -7.5257  -7.4941  -7.4708  -7.4443  -7.4360
    -7.3644  -7.3211  -7.3183  -7.2539  -7.2389  -7.1618  -7.0937  -6.9201
    -6.8999  -6.8338  -6.6331  -6.6070  -6.5446  -6.5304  -6.4302  -6.4252
    -6.3450  -6.3113  -6.1718  -6.1433  -6.0580  -5.9062  -5.8308  -5.6620
    -5.6527  -5.5571  -5.5136  -5.5038  -5.1822  -5.1423  -5.1007  -5.0636
    -4.9432  -4.8628  -4.7532  -4.7423  -4.6850  -4.6740  -4.5313  -4.4638
    -4.4357  -4.4161  -4.2644  -4.2507  -4.0224  -3.9930  -3.7725  -3.6865
    -3.6616  -3.5884  -3.3012  -3.2444  -3.2099  -3.0271  -2.9924  -2.8852
    -2.8630  -2.7579  -2.7382  -2.7285  -2.6365  -2.5887  -2.5847  -2.5318
    -2.4641  -2.4218  -2.3988  -2.3598  -2.3476  -2.2331  -2.2291  -2.1827
    -2.1692  -2.1387  -2.0442  -2.0186  -2.0070  -1.9995  -1.9594  -1.9523
    -1.8937  -1.8371  -1.7638  -1.7469  -1.7390  -1.6795  -1.6225  -1.4665
    -1.4015  -1.3852  -1.3601  -1.3063  -1.2743  -1.2653  -1.1249  -1.1220
    -1.1062  -1.1040  -0.9169  -0.8728  -0.8071  -0.7512  -0.7449  -0.7180
    -0.6493  -0.4853  -0.3712  -0.3366  -0.3056  -0.2990  -0.2651  -0.0862
    -0.0640   0.0096   0.0571   0.1525   0.2015   0.2372   0.2669   0.2713
     0.4039   0.4083   0.5976   0.6334   0.6908   0.7597   0.8520   0.9273
     0.9670   0.9761   1.0046   1.2681   1.3077   1.3158   1.3712   1.3957
     1.5259   1.6702   1.7570   1.9716   2.0084   2.1974   2.2868   2.6058
     2.8165   2.8346   3.2306   3.6491   3.8207   3.9751

          k =-0.5000-0.5000 0.0127     band energies (ev):

  -122.2523-120.0703-119.3509-118.9764-118.8055-117.8209-116.6409-114.6872
  -113.5092-113.3613-113.3043-111.2410 -79.8965 -79.8793 -79.8773 -77.7361
   -77.7136 -77.6693 -76.9017 -76.8931 -76.5474 -76.5467 -76.4585 -76.4207
   -76.3352 -76.2247 -76.2234 -75.5111 -75.4526 -75.4487 -74.3363 -74.2728
   -74.2507 -72.3864 -72.3579 -72.3206 -71.1875 -71.1796 -71.0838 -71.0686
   -71.0219 -70.9968 -70.9352 -70.8638 -70.6408 -68.9527 -68.9381 -68.7743
   -61.3622 -58.6687 -58.5958 -58.3454 -57.9392 -48.1292 -43.5530 -42.4902
   -41.6793 -40.4629 -39.9971 -38.3620 -38.2329 -38.0993 -38.0894 -38.0823
   -35.8403 -35.6513 -35.6189 -35.5355 -35.4863 -35.3563 -35.3544 -35.2418
   -35.1479 -34.9667 -34.9163 -34.7294 -34.4389 -34.2690 -30.5241 -28.7647
   -28.7145 -28.6960 -28.2919 -27.9302 -27.3475 -26.8637 -26.0087 -25.9353
   -25.7481 -25.6952 -25.5591 -25.5581 -25.3763 -25.2323 -25.1508 -25.1027
   -24.9896 -24.9516 -24.9048 -24.8769 -24.7269 -24.3734 -24.3480 -24.3298
   -24.2438 -24.2190 -24.2021 -23.9607 -23.9256 -23.8583 -23.8227 -23.7370
   -23.6909 -23.5565 -23.5505 -22.8742 -22.8549 -22.7310 -22.6695 -22.6220
   -22.2552 -21.8575 -21.8506 -21.0979 -21.0933 -20.6303 -20.6300 -20.5807
   -20.3954 -20.3798 -20.3095 -20.0705 -19.9739 -19.9682 -19.8284 -19.8182
   -19.8009 -19.6302 -19.5390 -19.5261 -19.4443 -19.4328 -19.2120 -18.5393
   -18.4296 -18.3862 -18.1816 -18.1454 -18.1436 -18.1166 -18.0748 -17.5636
   -17.4147 -17.2860 -16.8181 -16.7845 -16.5103 -16.3989 -15.9340 -14.6301
   -14.1207 -13.9713 -13.7807 -13.5678 -13.5661 -13.5439 -13.5307 -13.3608
   -13.3124 -13.2926 -13.2414 -13.1495 -13.1297 -13.0497 -12.9713 -12.9316
   -12.8660 -12.8234 -12.7613 -12.7498 -12.7334 -12.7316 -12.6508 -12.6009
   -12.5206 -12.5150 -12.5047 -12.4244 -12.4007 -12.3935 -12.3375 -12.3082
   -12.3022 -12.2755 -12.2434 -12.2336 -12.1071 -12.0816 -12.0763 -12.0554
   -12.0209 -11.9075 -11.8610 -11.5200 -11.5082 -11.4496 -11.3844 -11.3692
   -11.3621 -11.3439 -11.2768 -11.2708 -11.2701 -11.2562 -10.9958 -10.8665
   -10.8291 -10.8160 -10.6841 -10.6390 -10.6042 -10.5853 -10.4427 -10.3568
   -10.2848 -10.2501 -10.0340 -10.0293 -10.0157 -10.0031  -9.9469  -9.9461
    -9.8106  -9.6688  -9.6410  -9.6126  -9.5936  -9.5487  -9.5470  -9.3676
    -9.2797  -9.2436  -9.0715  -8.9478  -8.8519  -8.8483  -8.7983  -8.7461
    -8.7224  -8.6938  -8.5396  -8.4060  -8.3971  -8.3532  -8.3084  -8.2360
    -8.2094  -8.2012  -8.1682  -8.1176  -8.0185  -7.8289  -7.8054  -7.6924
    -7.6555  -7.6514  -7.5185  -7.4902  -7.4361  -7.4341  -7.4243  -7.4122
    -7.3987  -7.3149  -7.3108  -7.2827  -7.2651  -7.2415  -7.0735  -6.9675
    -6.9539  -6.8582  -6.7629  -6.6285  -6.6211  -6.5266  -6.3452  -6.3411
    -6.2155  -6.1847  -6.1234  -6.0916  -5.8192  -5.7775  -5.7660  -5.7532
    -5.5811  -5.5242  -5.3586  -5.2689  -5.2469  -5.2283  -5.2164  -4.9388
    -4.8912  -4.7675  -4.6845  -4.6815  -4.6699  -4.6681  -4.6551  -4.6429
    -4.6243  -4.4993  -4.4389  -4.2205  -4.1799  -3.9327  -3.8997  -3.4558
    -3.4488  -3.4367  -3.3106  -3.2598  -3.1907  -3.1384  -2.8983  -2.8179
    -2.7810  -2.7707  -2.7656  -2.7431  -2.6886  -2.6749  -2.5368  -2.4719
    -2.4042  -2.3992  -2.3865  -2.3492  -2.3407  -2.3253  -2.3229  -2.3097
    -2.2844  -2.2661  -2.2398  -2.2303  -2.1977  -2.1936  -2.1785  -2.0895
    -2.0069  -1.9924  -1.9534  -1.9422  -1.9133  -1.9126  -1.8717  -1.7780
    -1.7111  -1.6881  -1.6405  -1.6169  -1.4970  -1.4504  -1.4102  -1.3822
    -1.3664  -1.2443  -1.2411  -1.2114  -1.1418  -0.9156  -0.9046  -0.8787
    -0.8230  -0.8138  -0.7986  -0.7178  -0.5602  -0.4536  -0.2325  -0.2236
    -0.1501  -0.0473   0.0090   0.0856   0.2025   0.2109   0.3403   0.3447
     0.3661   0.4517   0.4639   0.4825   0.5194   0.5224   0.5442   0.6265
     0.6572   0.6721   0.6823   0.7414   0.9093   0.9191   1.0274   1.1266
     1.3963   1.4124   1.4383   1.4471   1.5732   1.8447   2.0093   2.0444
     2.1026   2.1840   2.2918   2.7263   2.7639   4.3701

          k = 0.3000 0.1000-0.0127     band energies (ev):

  -122.2524-120.0704-119.3509-118.9764-118.8055-117.8209-116.6410-114.6873
  -113.5093-113.3614-113.3043-111.2410 -79.8965 -79.8794 -79.8773 -77.7361
   -77.7137 -77.6695 -76.9017 -76.8931 -76.5474 -76.5467 -76.4585 -76.4207
   -76.3353 -76.2246 -76.2234 -75.5111 -75.4526 -75.4487 -74.3364 -74.2730
   -74.2508 -72.3864 -72.3580 -72.3206 -71.1875 -71.1796 -71.0838 -71.0687
   -71.0220 -70.9968 -70.9353 -70.8639 -70.6409 -68.9527 -68.9381 -68.7743
   -61.3641 -58.6700 -58.5984 -58.3494 -57.9431 -48.1426 -43.5700 -42.5159
   -41.7063 -40.4921 -40.0107 -38.3932 -38.2478 -38.0899 -38.0502 -37.9834
   -35.6333 -35.6265 -35.4838 -35.4617 -35.4261 -35.3282 -35.2758 -35.2529
   -34.9776 -34.9148 -34.8326 -34.7337 -34.5471 -34.3671 -30.6361 -28.8256
   -28.6102 -28.5298 -28.2654 -27.9983 -27.4703 -26.9718 -26.7772 -26.5472
   -26.3560 -26.1244 -25.7238 -25.6678 -25.5881 -25.5158 -25.4962 -25.4041
   -25.3395 -24.9533 -24.9191 -24.7864 -24.7301 -24.5239 -24.4635 -24.3779
   -24.3409 -24.2633 -24.0967 -24.0441 -24.0003 -23.9690 -23.9376 -23.7714
   -23.5917 -23.5177 -23.5071 -22.9610 -22.8009 -22.6133 -22.4444 -22.4262
   -22.4243 -22.2040 -22.1917 -21.3224 -20.8537 -20.6464 -20.5484 -20.4873
   -20.4542 -20.1368 -20.0018 -19.9284 -19.8940 -19.7463 -19.7109 -19.5994
   -19.5778 -19.5463 -19.5090 -19.4403 -19.3331 -19.2336 -19.1876 -18.6714
   -18.5595 -18.4881 -18.4036 -18.2343 -18.0511 -18.0236 -17.8449 -17.7310
   -17.6244 -17.5403 -17.1713 -17.0961 -15.9868 -15.8197 -15.6198 -13.6052
   -13.3652 -13.3614 -13.1125 -13.0332 -13.0016 -12.9869 -12.9674 -12.9040
   -12.7703 -12.7617 -12.7396 -12.6433 -12.6075 -12.5382 -12.3697 -12.3677
   -12.3556 -12.3205 -12.2973 -12.2868 -12.2485 -12.2030 -12.1642 -12.1487
   -12.1452 -12.1030 -12.0916 -12.0342 -11.9521 -11.8915 -11.8874 -11.8809
   -11.8276 -11.8085 -11.7302 -11.6690 -11.5950 -11.5040 -11.4377 -11.3752
   -11.3088 -11.2289 -11.2230 -11.1860 -11.1473 -11.0649 -11.0506 -11.0166
   -10.8905 -10.8290 -10.8039 -10.7835 -10.7402 -10.7384 -10.6194 -10.5846
   -10.5421 -10.4666 -10.4260 -10.3875 -10.3343 -10.2911 -10.2664 -10.2543
   -10.2294 -10.1433 -10.0834 -10.0317  -9.9364  -9.9306  -9.8830  -9.8324
    -9.7790  -9.7568  -9.7507  -9.6793  -9.5812  -9.5517  -9.4698  -9.3404
    -9.2722  -9.2560  -9.2473  -9.2291  -9.2219  -9.1441  -9.0167  -8.9857
    -8.9356  -8.9081  -8.8509  -8.8400  -8.7856  -8.7435  -8.6623  -8.6406
    -8.5401  -8.4960  -8.4398  -8.3105  -8.1696  -8.1510  -7.9128  -7.8114
    -7.7270  -7.6443  -7.6077  -7.5968  -7.5533  -7.5498  -7.4861  -7.4081
    -7.2807  -7.2424  -7.2400  -7.1640  -7.0776  -6.9729  -6.9704  -6.9017
    -6.8467  -6.7107  -6.6251  -6.5982  -6.5650  -6.4342  -6.3799  -6.1908
    -6.1578  -6.0424  -5.9394  -5.9029  -5.8283  -5.7467  -5.7327  -5.7145
    -5.6310  -5.5855  -5.4966  -5.4766  -5.2276  -5.1965  -5.1550  -5.0573
    -4.9199  -4.9166  -4.9064  -4.8570  -4.8039  -4.7289  -4.6887  -4.6681
    -4.4215  -4.3707  -4.3297  -4.2303  -4.0891  -4.0253  -3.9606  -3.9260
    -3.8488  -3.8165  -3.7723  -3.7207  -3.7084  -3.6473  -3.6020  -3.5659
    -3.5421  -3.5090  -3.4897  -3.3849  -3.2979  -3.2753  -3.1825  -3.1749
    -3.1716  -3.1442  -3.0557  -3.0270  -2.8986  -2.8815  -2.8513  -2.8046
    -2.7837  -2.7656  -2.7458  -2.6644  -2.6302  -2.6230  -2.5158  -2.4714
    -2.4586  -2.3985  -2.3562  -2.3230  -2.2500  -2.2445  -2.2073  -2.1960
    -2.1790  -2.1642  -2.1112  -2.0853  -2.0658  -2.0465  -1.9249  -1.9044
    -1.8984  -1.8587  -1.8194  -1.8098  -1.7847  -1.7754  -1.7651  -1.6952
    -1.6307  -1.5783  -1.4424  -1.4311  -1.3796  -1.3719  -1.3471  -1.2665
    -1.2542  -1.1910  -1.0630  -1.0492  -0.9923  -0.8152  -0.7275  -0.7135
    -0.5674  -0.5544  -0.4870  -0.4534  -0.4457  -0.2866  -0.2318  -0.0794
    -0.0304  -0.0082   0.0223   0.1367   0.2104   0.3175   0.3535   0.4060
     0.4991   0.5365   0.7673   0.8355   0.8501   1.0489   1.1226   1.3678
     1.4367   1.5337   1.5992   1.9027   2.5114   2.9476

          k =-0.5000 0.1000-0.0127     band energies (ev):

  -122.2523-120.0703-119.3509-118.9764-118.8055-117.8209-116.6409-114.6872
  -113.5092-113.3613-113.3043-111.2410 -79.8965 -79.8794 -79.8772 -77.7360
   -77.7137 -77.6695 -76.9017 -76.8931 -76.5474 -76.5467 -76.4585 -76.4207
   -76.3353 -76.2246 -76.2234 -75.5111 -75.4526 -75.4486 -74.3364 -74.2729
   -74.2507 -72.3863 -72.3579 -72.3206 -71.1874 -71.1796 -71.0838 -71.0686
   -71.0220 -70.9968 -70.9353 -70.8639 -70.6408 -68.9527 -68.9381 -68.7743
   -61.3636 -58.6696 -58.5977 -58.3483 -57.9420 -48.1388 -43.5652 -42.5087
   -41.6986 -40.4838 -40.0068 -38.3846 -38.2436 -38.0948 -38.0879 -37.9817
   -35.6309 -35.6264 -35.5392 -35.4883 -35.4817 -35.3578 -35.2746 -35.2523
   -34.9760 -34.9213 -34.9120 -34.7332 -34.5094 -34.3347 -30.5972 -28.8048
   -28.7546 -28.4676 -28.2581 -27.9748 -27.4264 -26.9321 -26.8760 -26.5315
   -26.2247 -26.0892 -25.6867 -25.6342 -25.6079 -25.5209 -25.3569 -25.2312
   -25.1331 -25.0649 -25.0221 -24.8998 -24.5377 -24.5065 -24.4771 -24.2932
   -24.2436 -24.2014 -24.0257 -24.0167 -23.9826 -23.9174 -23.7687 -23.7431
   -23.6514 -23.6014 -23.4099 -23.1079 -22.8107 -22.5825 -22.5037 -22.4602
   -22.3623 -22.1287 -22.0164 -21.1499 -20.9115 -20.7015 -20.6442 -20.4801
   -20.3918 -20.0568 -19.9912 -19.8126 -19.8037 -19.7939 -19.7718 -19.6869
   -19.6525 -19.5706 -19.4797 -19.3639 -19.3252 -19.2430 -19.1957 -18.6444
   -18.6081 -18.5506 -18.3822 -18.2628 -18.1892 -18.1785 -17.8189 -17.6246
   -17.6024 -17.4727 -17.1681 -16.8819 -15.9286 -15.8765 -15.6468 -14.0184
   -13.6986 -13.5699 -13.2151 -13.1423 -13.0695 -13.0274 -12.9778 -12.9286
   -12.9158 -12.8620 -12.7616 -12.7250 -12.7068 -12.6023 -12.5242 -12.5141
   -12.5003 -12.4948 -12.3592 -12.3233 -12.3097 -12.2671 -12.2662 -12.2432
   -12.2400 -12.2387 -12.2265 -12.1304 -12.1185 -12.1003 -12.0831 -12.0338
   -11.9756 -11.9154 -11.9034 -11.8592 -11.8507 -11.8286 -11.6294 -11.6054
   -11.4801 -11.4317 -11.2893 -11.2057 -11.1430 -11.0895 -11.0363 -11.0295
   -10.9531 -10.9464 -10.9190 -10.8674 -10.8283 -10.8114 -10.7866 -10.7739
   -10.7607 -10.6457 -10.5658 -10.4715 -10.3709 -10.3591 -10.2907 -10.2901
   -10.2593 -10.2539 -10.2304 -10.1844 -10.0782 -10.0649 -10.0097  -9.9436
    -9.8661  -9.7398  -9.7389  -9.7054  -9.6248  -9.6130  -9.5846  -9.3136
    -9.3036  -9.2778  -9.2401  -9.1780  -9.1323  -9.1288  -9.0286  -8.9599
    -8.9030  -8.8826  -8.7672  -8.7523  -8.7143  -8.6830  -8.6784  -8.6377
    -8.4203  -8.4124  -8.3773  -8.2260  -8.1871  -8.1445  -8.0629  -7.8378
    -7.7652  -7.7157  -7.6432  -7.5305  -7.5086  -7.4775  -7.4251  -7.3794
    -7.3625  -7.3477  -7.3105  -7.2993  -7.1423  -7.0817  -7.0370  -7.0051
    -6.9234  -6.8682  -6.7091  -6.6870  -6.6356  -6.5653  -6.4138  -6.2407
    -6.1432  -6.0839  -6.0756  -6.0486  -6.0365  -5.9335  -5.7998  -5.7534
    -5.5856  -5.5741  -5.5254  -5.4721  -5.3129  -5.2807  -5.1965  -5.1644
    -5.1561  -5.0911  -4.9304  -4.9103  -4.8845  -4.8520  -4.7597  -4.5542
    -4.5162  -4.4161  -4.2635  -4.2584  -4.2579  -3.9914  -3.9725  -3.9237
    -3.8679  -3.8252  -3.7983  -3.6550  -3.5091  -3.4840  -3.4550  -3.4446
    -3.3360  -3.3120  -3.2590  -3.2177  -3.2146  -3.0782  -3.0087  -2.9118
    -2.8867  -2.8857  -2.8656  -2.8420  -2.7881  -2.7802  -2.7083  -2.6768
    -2.4968  -2.4898  -2.4182  -2.4132  -2.4017  -2.3782  -2.2768  -2.2306
    -2.2143  -2.1627  -2.1507  -2.1449  -2.0989  -2.0973  -2.0211  -2.0092
    -1.9646  -1.9609  -1.9053  -1.8392  -1.7412  -1.7241  -1.6405  -1.6064
    -1.5725  -1.4873  -1.4621  -1.4261  -1.4196  -1.4137  -1.3645  -1.3527
    -1.3471  -1.2284  -1.1226  -1.1160  -1.0769  -1.0269  -0.8941  -0.8540
    -0.7875  -0.6826  -0.6787  -0.5693  -0.4771  -0.4391  -0.3604  -0.3439
    -0.2484  -0.1717  -0.1009  -0.0680   0.0026   0.0162   0.1565   0.2086
     0.2333   0.3015   0.3595   0.5155   0.5284   0.5413   0.6131   0.6764
     0.7342   0.8157   0.8675   1.0104   1.0744   1.5366   1.5577   1.6425
     1.8140   1.8231   1.9588   2.1420   2.9486   3.2685

          k =-0.5000 0.3000-0.0127     band energies (ev):

  -122.2523-120.0703-119.3509-118.9764-118.8055-117.8209-116.6409-114.6872
  -113.5092-113.3613-113.3042-111.2410 -79.8965 -79.8793 -79.8772 -77.7360
   -77.7136 -77.6694 -76.9017 -76.8931 -76.5474 -76.5467 -76.4585 -76.4207
   -76.3352 -76.2247 -76.2234 -75.5111 -75.4525 -75.4486 -74.3364 -74.2729
   -74.2507 -72.3863 -72.3579 -72.3206 -71.1874 -71.1796 -71.0838 -71.0686
   -71.0220 -70.9968 -70.9353 -70.8639 -70.6408 -68.9527 -68.9380 -68.7743
   -61.3628 -58.6690 -58.5965 -58.3468 -57.9405 -48.1329 -43.5577 -42.4973
   -41.6867 -40.4709 -40.0008 -38.3706 -38.2370 -38.0915 -38.0844 -38.0550
   -35.7625 -35.6218 -35.5879 -35.5368 -35.4871 -35.3569 -35.3242 -35.2458
   -35.0607 -34.9703 -34.9182 -34.7308 -34.4661 -34.2943 -30.5523 -28.7801
   -28.7298 -28.5463 -28.3573 -27.9473 -27.3781 -26.8901 -26.4398 -26.0647
   -26.0546 -25.6321 -25.5775 -25.5536 -25.4192 -25.4132 -25.3195 -25.2528
   -25.0427 -24.9495 -24.9492 -24.6299 -24.5723 -24.5050 -24.4505 -24.3852
   -24.2477 -24.2117 -24.2096 -24.1463 -23.8996 -23.8748 -23.7859 -23.7145
   -23.6370 -23.6295 -23.6234 -22.9654 -22.6454 -22.5855 -22.5603 -22.5313
   -22.3548 -22.1388 -21.9177 -21.0721 -21.0348 -20.6565 -20.5363 -20.4856
   -20.4269 -20.2082 -20.1247 -20.1209 -19.9682 -19.8184 -19.7909 -19.7495
   -19.7471 -19.5934 -19.5748 -19.5685 -19.5315 -19.3076 -19.2183 -18.8119
   -18.5296 -18.5126 -18.2667 -18.1733 -18.1164 -17.9581 -17.6517 -17.6433
   -17.5724 -17.3612 -17.0733 -16.8233 -16.2199 -16.2088 -15.9194 -14.2268
   -14.0283 -13.6065 -13.4648 -13.4237 -13.3112 -13.2430 -13.2234 -13.2162
   -13.1698 -13.0643 -13.0271 -12.9737 -12.9437 -12.9316 -12.9061 -12.8224
   -12.7533 -12.6368 -12.6058 -12.5823 -12.5512 -12.5423 -12.5024 -12.4878
   -12.4553 -12.4484 -12.3776 -12.3752 -12.2778 -12.2665 -12.2652 -12.2167
   -12.2147 -12.1307 -12.0801 -12.0704 -11.9791 -11.9473 -11.9045 -11.7846
   -11.7394 -11.7011 -11.6248 -11.4666 -11.4592 -11.4570 -11.4167 -11.3464
   -11.2637 -11.1692 -11.1598 -11.1355 -11.1001 -11.0656 -10.9544 -10.8835
   -10.8033 -10.7597 -10.6884 -10.6433 -10.5614 -10.5499 -10.2453 -10.2317
   -10.1863 -10.1656 -10.0740 -10.0715 -10.0672  -9.9978  -9.9654  -9.9164
    -9.8936  -9.8630  -9.8415  -9.7595  -9.6962  -9.6189  -9.5902  -9.5865
    -9.5666  -9.2957  -9.1629  -9.1195  -9.0389  -8.9972  -8.9905  -8.7631
    -8.7591  -8.6368  -8.5339  -8.5210  -8.4131  -8.3830  -8.3171  -8.2221
    -8.2045  -8.1858  -8.0628  -8.0433  -7.9661  -7.9038  -7.8024  -7.6961
    -7.6860  -7.5553  -7.5425  -7.5114  -7.4955  -7.4811  -7.4578  -7.4217
    -7.3723  -7.3654  -7.3169  -7.1892  -7.1719  -7.0627  -7.0453  -6.9643
    -6.8961  -6.8212  -6.7239  -6.6045  -6.5853  -6.5601  -6.4411  -6.4387
    -6.4181  -6.3419  -6.1563  -6.0545  -6.0083  -5.8966  -5.8721  -5.6132
    -5.5857  -5.5733  -5.5579  -5.5181  -5.1944  -5.1316  -5.1282  -5.1196
    -5.0946  -4.9840  -4.9436  -4.8089  -4.8067  -4.7365  -4.6865  -4.6478
    -4.4993  -4.4451  -4.4263  -4.2625  -4.2550  -3.9965  -3.8122  -3.7561
    -3.6755  -3.5521  -3.5306  -3.5263  -3.4411  -3.2373  -3.1033  -2.9949
    -2.9777  -2.9575  -2.9327  -2.8938  -2.8664  -2.7531  -2.6667  -2.6647
    -2.6108  -2.6007  -2.5850  -2.5763  -2.5049  -2.4974  -2.4144  -2.3706
    -2.3595  -2.2851  -2.2536  -2.1782  -2.1652  -2.1351  -2.0983  -2.0922
    -2.0742  -2.0708  -2.0568  -2.0160  -1.9721  -1.9208  -1.9002  -1.8909
    -1.8749  -1.8181  -1.7757  -1.7689  -1.6948  -1.6795  -1.6625  -1.4417
    -1.4349  -1.4300  -1.2418  -1.2399  -1.2034  -1.1516  -1.0471  -1.0228
    -0.9550  -0.9246  -0.9108  -0.8871  -0.7955  -0.7715  -0.7426  -0.6416
    -0.6298  -0.4257  -0.3976  -0.3529  -0.2744  -0.2386  -0.1525  -0.0827
    -0.0301  -0.0110   0.0947   0.1615   0.1653   0.1837   0.3392   0.3457
     0.4464   0.5843   0.6478   0.6784   0.7240   0.7738   0.8996   0.9366
     1.0431   1.1001   1.3545   1.4303   1.6453   1.6796   1.8757   2.0417
     2.1478   2.3232   2.8484   3.2103   3.5541   3.7613

     the Fermi energy is    -2.3448 ev

     total energy              =   -7988.34752153 Ry
     Harris-Foulkes estimate   =   -7990.96639998 Ry
     estimated scf accuracy    <    2855.71709185 Ry

     iteration # 11     ecut=    40.00 Ry     beta=0.15
     Davidson diagonalization with overlap
     ethr =  1.00E-02,  avg # of iterations =  2.0

     negative rho (up, down):  0.288E+01 0.000E+00

     total cpu time spent up to now is     3270.8 secs

     total energy              =   -7990.10620268 Ry
     Harris-Foulkes estimate   =   -7990.26337079 Ry
     estimated scf accuracy    <     785.58751117 Ry

     iteration # 12     ecut=    40.00 Ry     beta=0.15
     Davidson diagonalization with overlap
     ethr =  1.00E-02,  avg # of iterations =  2.2

     negative rho (up, down):  0.286E+01 0.000E+00

     total cpu time spent up to now is     3432.1 secs

     total energy              =   -7990.57757433 Ry
     Harris-Foulkes estimate   =   -7990.58195843 Ry
     estimated scf accuracy    <     389.20381795 Ry

     iteration # 13     ecut=    40.00 Ry     beta=0.15
     Davidson diagonalization with overlap
     ethr =  1.00E-02,  avg # of iterations =  1.2

     negative rho (up, down):  0.274E+01 0.000E+00

     total cpu time spent up to now is     3578.0 secs

     total energy              =   -7991.28940626 Ry
     Harris-Foulkes estimate   =   -7990.61288976 Ry
     estimated scf accuracy    <     368.06977332 Ry

     iteration # 14     ecut=    40.00 Ry     beta=0.15
     Davidson diagonalization with overlap
     ethr =  1.00E-02,  avg # of iterations =  3.7

     negative rho (up, down):  0.271E+01 0.000E+00

     total cpu time spent up to now is     3740.2 secs

     total energy              =   -7992.27672267 Ry
     Harris-Foulkes estimate   =   -7991.53856389 Ry
     estimated scf accuracy    <     272.30936623 Ry

     iteration # 15     ecut=    40.00 Ry     beta=0.15
     Davidson diagonalization with overlap
     ethr =  1.00E-02,  avg # of iterations =  1.9

     negative rho (up, down):  0.233E+01 0.000E+00

     total cpu time spent up to now is     3889.0 secs

     total energy              =   -7993.34044020 Ry
     Harris-Foulkes estimate   =   -7992.95171255 Ry
     estimated scf accuracy    <     310.06991305 Ry

     iteration # 16     ecut=    40.00 Ry     beta=0.15
     Davidson diagonalization with overlap
     ethr =  1.00E-02,  avg # of iterations =  2.1

     negative rho (up, down):  0.225E+01 0.000E+00

     total cpu time spent up to now is     4038.3 secs

     total energy              =   -7993.43056473 Ry
     Harris-Foulkes estimate   =   -7994.48721470 Ry
     estimated scf accuracy    <     528.83094385 Ry

     iteration # 17     ecut=    40.00 Ry     beta=0.15
     Davidson diagonalization with overlap
     ethr =  1.00E-02,  avg # of iterations =  2.6

     negative rho (up, down):  0.233E+01 0.000E+00

     total cpu time spent up to now is     4219.4 secs

     total energy              =   -7994.05431240 Ry
     Harris-Foulkes estimate   =   -7993.94251925 Ry
     estimated scf accuracy    <     533.98695896 Ry

     iteration # 18     ecut=    40.00 Ry     beta=0.15
     Davidson diagonalization with overlap
     ethr =  1.00E-02,  avg # of iterations =  2.1

     negative rho (up, down):  0.288E+01 0.000E+00

     total cpu time spent up to now is     4374.8 secs

     total energy              =   -7988.98711227 Ry
     Harris-Foulkes estimate   =   -7994.62873337 Ry
     estimated scf accuracy    <     578.72143582 Ry

     iteration # 19     ecut=    40.00 Ry     beta=0.15
     Davidson diagonalization with overlap
     ethr =  1.00E-02,  avg # of iterations =  1.2

     negative rho (up, down):  0.280E+01 0.000E+00

     total cpu time spent up to now is     4513.1 secs

     total energy              =   -7993.28327183 Ry
     Harris-Foulkes estimate   =   -7993.53910418 Ry
     estimated scf accuracy    <     872.42742398 Ry

     iteration # 20     ecut=    40.00 Ry     beta=0.15
     Davidson diagonalization with overlap
     ethr =  1.00E-02,  avg # of iterations =  1.0

     negative rho (up, down):  0.289E+01 0.000E+00

     total cpu time spent up to now is     4650.0 secs

          k = 0.1000 0.1000 0.0127     band energies (ev):

  -122.6973-119.9255-119.8427-119.2471-119.1606-118.8641-118.3423-117.8852
  -117.6226-117.4230-117.2542-110.5224 -80.3595 -80.3045 -80.2991 -77.6735
   -77.5110 -77.4794 -77.2680 -77.2185 -77.1918 -76.8130 -76.7404 -76.6919
   -76.5696 -76.5684 -76.5264 -76.4392 -76.4365 -76.4296 -75.9425 -75.9092
   -75.5683 -75.5266 -75.4887 -75.3917 -75.3285 -75.1471 -75.0792 -75.0423
   -75.0241 -74.8623 -74.8514 -74.7825 -74.5932 -68.7766 -68.5397 -67.5059
   -63.4966 -57.5119 -51.6990 -51.0107 -50.6738 -48.2115 -45.1926 -44.1448
   -43.6904 -41.9589 -41.2736 -40.8076 -40.0123 -39.9756 -39.9341 -37.1641
   -36.0944 -35.9953 -34.1511 -34.1317 -33.3890 -31.9578 -31.1904 -30.9976
   -30.9740 -29.5931 -29.5256 -29.3953 -29.3247 -29.0373 -29.0264 -28.5925
   -28.4782 -28.3803 -27.9981 -27.4244 -27.2600 -26.9557 -26.5413 -26.4284
   -26.3757 -26.3497 -26.3212 -26.2054 -26.1525 -26.0832 -25.9907 -25.8606
   -25.6999 -25.6754 -25.6240 -25.5800 -25.4629 -25.3968 -25.3683 -25.1025
   -24.8307 -24.6548 -24.6362 -24.5044 -23.9908 -23.6767 -23.5840 -23.5626
   -23.5403 -23.4560 -23.3125 -23.2900 -23.2250 -23.1595 -23.1151 -22.7466
   -22.4803 -22.4348 -22.1421 -22.1230 -22.0702 -21.9881 -21.7439 -21.7035
   -21.4964 -21.3546 -21.3529 -21.2444 -21.1551 -21.0602 -21.0236 -20.9710
   -20.9431 -20.8991 -20.8700 -20.7882 -20.7105 -20.6424 -20.6299 -20.5713
   -20.4886 -20.4264 -20.2775 -20.1605 -20.0978 -19.9518 -19.8508 -19.7060
   -19.4847 -19.2382 -19.0967 -18.8903 -17.1794 -17.0896 -16.9266 -14.4349
   -14.2503 -14.1070 -14.0888 -14.0420 -13.8959 -13.8659 -13.8587 -13.8068
   -13.7775 -13.6906 -13.6768 -13.6465 -13.6137 -13.5591 -13.5140 -13.4799
   -13.2302 -13.1768 -13.0244 -12.9101 -12.7467 -12.7165 -12.6256 -12.6148
   -12.5265 -12.3552 -12.1929 -12.1345 -11.9560 -11.9498 -11.7251 -11.6015
   -11.5958 -11.5816 -11.5625 -11.5121 -11.4285 -11.3322 -11.3264 -11.3085
   -11.1642 -11.0396 -11.0224 -11.0136 -10.9453 -10.9359 -10.8346 -10.8172
   -10.8041 -10.7901 -10.7739 -10.7556 -10.5743 -10.4691 -10.4552 -10.4272
   -10.4182 -10.3318 -10.3030 -10.2601 -10.1751 -10.0753  -9.9794  -9.9149
    -9.8625  -9.7690  -9.7436  -9.7150  -9.6852  -9.6754  -9.6356  -9.5962
    -9.5617  -9.5530  -9.5323  -9.5161  -9.4903  -9.4674  -9.4015  -9.2876
    -9.2796  -9.2223  -9.1986  -9.0930  -9.0905  -9.0746  -9.0554  -8.9945
    -8.9587  -8.8597  -8.8459  -8.7816  -8.7762  -8.7356  -8.7306  -8.7277
    -8.6752  -8.6541  -8.5629  -8.5042  -8.4914  -8.4888  -8.4844  -8.4095
    -8.3775  -8.3530  -8.3184  -8.2886  -8.2432  -8.1783  -8.1311  -8.1286
    -8.1262  -8.0096  -8.0085  -8.0047  -7.9176  -7.9145  -7.8931  -7.8768
    -7.8386  -7.7569  -7.7279  -7.7010  -7.6922  -7.6897  -7.6238  -7.5976
    -7.5930  -7.5712  -7.5295  -7.5158  -7.4569  -7.4087  -7.3583  -7.3352
    -7.3052  -7.2684  -7.2364  -7.1590  -7.0175  -7.0099  -6.9618  -6.9500
    -6.8986  -6.8452  -6.8345  -6.8286  -6.7632  -6.7418  -6.7174  -6.6860
    -6.6785  -6.4958  -6.4589  -6.4222  -6.3536  -6.3479  -6.0452  -6.0006
    -5.9732  -5.9479  -5.8880  -5.8560  -5.7647  -5.7399  -5.7144  -5.6607
    -5.5883  -5.5828  -5.5651  -5.5515  -5.4930  -5.3735  -5.3395  -5.3074
    -5.3055  -5.1968  -5.1775  -5.1402  -5.1009  -5.0590  -5.0444  -5.0083
    -4.9640  -4.9225  -4.8734  -4.8375  -4.8071  -4.8006  -4.7790  -4.7255
    -4.6879  -4.6078  -4.5140  -4.4388  -4.4270  -4.3409  -4.2244  -4.1378
    -4.0723  -4.0566  -4.0534  -3.9487  -3.8875  -3.8777  -3.7370  -3.3959
    -3.3096  -3.2763  -3.0070  -3.0015  -2.9055  -2.7563  -2.6440  -2.5462
    -2.4855  -2.4127  -2.3009  -2.1960  -2.1592  -2.0831  -1.9685  -1.8570
    -1.8409  -1.8264  -1.7868  -1.7076  -1.7045  -1.5320  -1.4608  -1.3729
    -1.3165  -1.3074  -1.2513  -1.2086  -1.1473  -1.0363  -0.9944  -0.7513
    -0.5583  -0.3709  -0.0878  -0.0299   0.0378   0.0818   0.1575   0.2101
     0.3539   0.4549   0.6169   0.8599   1.1585   1.1948   1.2981   1.5248
     1.5727   1.7037   1.7656   2.4942   2.8202   3.1859

          k = 0.1000 0.3000 0.0127     band energies (ev):

  -122.6973-119.9255-119.8426-119.2472-119.1606-118.8641-118.3423-117.8852
  -117.6226-117.4230-117.2542-110.5223 -80.3595 -80.3044 -80.2991 -77.6734
   -77.5110 -77.4793 -77.2680 -77.2184 -77.1918 -76.8130 -76.7404 -76.6919
   -76.5696 -76.5684 -76.5264 -76.4391 -76.4364 -76.4296 -75.9425 -75.9091
   -75.5683 -75.5266 -75.4886 -75.3917 -75.3285 -75.1470 -75.0792 -75.0423
   -75.0241 -74.8623 -74.8514 -74.7825 -74.5932 -68.7766 -68.5396 -67.5058
   -63.4959 -57.5112 -51.6970 -51.0055 -50.6694 -48.2062 -45.1851 -44.1355
   -43.6814 -41.9525 -41.2634 -40.8007 -40.0688 -39.9732 -39.9315 -37.1518
   -36.0443 -35.9479 -34.1954 -34.1491 -33.3880 -31.8978 -31.1819 -31.1139
   -30.9887 -30.0318 -29.5535 -29.3948 -29.2830 -29.2279 -28.9699 -28.5325
   -28.4645 -28.3730 -28.0671 -27.3952 -27.3084 -27.0258 -26.7473 -26.5605
   -26.4587 -26.2671 -26.2514 -26.1702 -26.1516 -26.1044 -25.9814 -25.9098
   -25.8311 -25.7265 -25.6423 -25.5942 -25.4965 -25.3202 -25.2848 -24.7538
   -24.6653 -24.6155 -24.3959 -24.2593 -24.0323 -23.6984 -23.6274 -23.4701
   -23.4093 -23.3445 -23.3209 -23.1849 -23.1434 -22.9750 -22.5640 -22.5178
   -22.4091 -22.3374 -22.2543 -21.9923 -21.9895 -21.9783 -21.9082 -21.5168
   -21.3894 -21.3656 -21.3309 -21.2061 -21.1576 -21.0246 -21.0022 -20.9721
   -20.9123 -20.8958 -20.8616 -20.7815 -20.7161 -20.6897 -20.5938 -20.4904
   -20.4597 -20.3313 -20.2777 -20.2238 -19.9917 -19.8561 -19.8042 -19.7495
   -19.3831 -19.2144 -18.9829 -18.8029 -17.1987 -17.1321 -16.8691 -14.4965
   -14.4124 -14.3032 -14.2459 -14.0938 -14.0593 -14.0408 -13.9092 -13.8797
   -13.8013 -13.7923 -13.7159 -13.6938 -13.5764 -13.4720 -13.4652 -13.4328
   -13.3323 -13.2922 -13.2503 -13.2283 -13.1287 -13.0912 -13.0336 -12.7294
   -12.5806 -12.5039 -12.4041 -12.2816 -12.2726 -12.1586 -12.1522 -12.0537
   -11.9355 -11.9203 -11.8795 -11.6867 -11.6688 -11.6552 -11.5984 -11.5636
   -11.5260 -11.4822 -11.4553 -11.3832 -11.3437 -11.2665 -11.1819 -11.0594
   -11.0214 -10.8871 -10.8610 -10.8057 -10.7957 -10.6795 -10.6422 -10.6375
   -10.5483 -10.5113 -10.4600 -10.3708 -10.3183 -10.2874 -10.2832 -10.2770
   -10.1722 -10.1714 -10.0611  -9.9615  -9.7989  -9.7453  -9.7398  -9.7109
    -9.6933  -9.6572  -9.6481  -9.6209  -9.6033  -9.5894  -9.5828  -9.4951
    -9.4441  -9.4438  -9.3457  -9.3194  -9.3129  -9.2611  -9.2370  -9.1230
    -9.1114  -9.0989  -9.0927  -9.0610  -9.0291  -8.9433  -8.8656  -8.8456
    -8.8431  -8.7803  -8.7726  -8.7675  -8.6988  -8.6237  -8.6053  -8.5893
    -8.5648  -8.4403  -8.4377  -8.4280  -8.3897  -8.3834  -8.3660  -8.3383
    -8.3324  -8.3112  -8.2747  -8.2021  -8.2014  -8.1056  -8.0870  -7.9534
    -7.9344  -7.8738  -7.8246  -7.8162  -7.7641  -7.7331  -7.6984  -7.6643
    -7.6092  -7.5469  -7.5138  -7.4751  -7.4261  -7.4148  -7.2533  -7.1154
    -7.1108  -7.0993  -7.0351  -7.0345  -7.0161  -7.0011  -6.9611  -6.9097
    -6.8890  -6.8804  -6.7397  -6.6451  -6.6295  -6.5052  -6.4558  -6.3620
    -6.2904  -6.1985  -6.1496  -6.1098  -6.0546  -6.0312  -6.0116  -5.9378
    -5.9203  -5.8741  -5.8373  -5.7914  -5.7653  -5.7537  -5.6937  -5.6660
    -5.6302  -5.5536  -5.4627  -5.4558  -5.4346  -5.3050  -5.2013  -5.1747
    -5.1349  -5.1090  -5.0407  -4.9990  -4.9672  -4.9331  -4.8908  -4.8427
    -4.8403  -4.7240  -4.7107  -4.6809  -4.6188  -4.5041  -4.4918  -4.4628
    -4.3967  -4.3269  -4.2887  -4.2494  -3.9338  -3.8688  -3.8631  -3.7365
    -3.7311  -3.6754  -3.5990  -3.3684  -3.1434  -3.1014  -3.0376  -2.9381
    -2.8486  -2.7513  -2.7465  -2.4778  -2.3816  -2.3185  -2.2032  -2.1123
    -2.0778  -1.9821  -1.9518  -1.8544  -1.7772  -1.7308  -1.6657  -1.6046
    -1.5512  -1.4908  -1.4049  -1.3196  -1.2058  -1.0889  -1.0821  -0.9782
    -0.9397  -0.7925  -0.7829  -0.6329  -0.5908  -0.4553  -0.3883  -0.3102
    -0.1638  -0.0487   0.0004   0.1044   0.2470   0.5132   0.6866   0.9232
     0.9355   1.0450   1.1248   1.3492   1.5219   1.6843   1.8408   2.1080
     2.2558   2.4009   2.5954   2.7002   2.9106   3.2456

          k = 0.1000-0.5000 0.0127     band energies (ev):

  -122.6972-119.9255-119.8426-119.2471-119.1606-118.8641-118.3422-117.8851
  -117.6226-117.4230-117.2542-110.5222 -80.3594 -80.3043 -80.2991 -77.6734
   -77.5110 -77.4792 -77.2680 -77.2184 -77.1918 -76.8130 -76.7404 -76.6919
   -76.5697 -76.5684 -76.5264 -76.4391 -76.4364 -76.4296 -75.9424 -75.9091
   -75.5683 -75.5266 -75.4885 -75.3917 -75.3285 -75.1470 -75.0792 -75.0423
   -75.0241 -74.8623 -74.8514 -74.7825 -74.5932 -68.7766 -68.5395 -67.5058
   -63.4955 -57.5107 -51.6958 -51.0023 -50.6668 -48.2030 -45.1805 -44.1297
   -43.6759 -41.9486 -41.2571 -40.7964 -40.1030 -39.9718 -39.9299 -37.1442
   -36.0127 -35.9181 -34.2340 -34.1479 -33.3874 -31.8598 -31.2940 -31.0717
   -30.9833 -30.2778 -29.5287 -29.3946 -29.3431 -29.2568 -28.9270 -28.4944
   -28.4570 -28.3686 -28.1143 -27.5941 -27.4353 -26.9416 -26.6741 -26.5460
   -26.4495 -26.4374 -26.2843 -26.2567 -26.2070 -25.9942 -25.9737 -25.9033
   -25.6920 -25.6192 -25.5963 -25.5950 -25.5729 -25.4003 -25.0483 -24.9147
   -24.6503 -24.5335 -24.2432 -24.0954 -24.0506 -23.7048 -23.6736 -23.4185
   -23.3444 -23.3125 -23.2471 -23.1741 -23.1030 -22.9091 -22.7722 -22.3498
   -22.3202 -22.3131 -21.9675 -21.8714 -21.8677 -21.7953 -21.7484 -21.4256
   -21.3350 -21.3299 -21.2896 -21.1348 -21.0800 -21.0662 -21.0427 -21.0165
   -20.9672 -20.9501 -20.9286 -20.8342 -20.7953 -20.7758 -20.5651 -20.4727
   -20.4105 -20.2143 -20.1808 -20.1646 -20.1540 -19.8029 -19.7365 -19.5467
   -19.3311 -19.1962 -19.0074 -18.6719 -17.2001 -17.1135 -16.8823 -14.8583
   -14.4748 -14.4364 -14.3240 -14.1431 -14.0381 -14.0315 -13.9745 -13.8470
   -13.8003 -13.7826 -13.7445 -13.7394 -13.7014 -13.6137 -13.5472 -13.5469
   -13.4802 -13.4459 -13.3433 -13.2408 -13.2191 -13.1152 -13.0837 -12.9631
   -12.9479 -12.6579 -12.6029 -12.3319 -12.2844 -12.2453 -12.2165 -12.1656
   -12.1194 -12.0588 -12.0057 -11.9395 -11.9313 -11.8707 -11.7288 -11.7156
   -11.6942 -11.6907 -11.6746 -11.5984 -11.5080 -11.5030 -11.4638 -11.2899
   -11.2633 -10.9599 -10.9554 -10.9469 -10.9090 -10.8336 -10.7564 -10.7349
   -10.6938 -10.6913 -10.4612 -10.4511 -10.4150 -10.4040 -10.3709 -10.3302
   -10.2757 -10.2599 -10.2514 -10.2204 -10.1621 -10.0850  -9.9700  -9.8285
    -9.7149  -9.6943  -9.6076  -9.6035  -9.5857  -9.5732  -9.5526  -9.5407
    -9.5225  -9.5184  -9.4831  -9.4767  -9.4394  -9.3839  -9.3562  -9.3081
    -9.2814  -9.1225  -9.1136  -9.1041  -9.0836  -8.9934  -8.9148  -8.8802
    -8.8721  -8.8304  -8.7872  -8.7834  -8.7615  -8.7557  -8.6321  -8.6057
    -8.5903  -8.5634  -8.5546  -8.5132  -8.4709  -8.4679  -8.4259  -8.3958
    -8.3768  -8.3625  -8.3366  -8.2632  -8.2573  -8.2520  -8.2316  -8.0985
    -8.0917  -7.9987  -7.8687  -7.8637  -7.7909  -7.7614  -7.7416  -7.6990
    -7.6909  -7.6174  -7.5890  -7.4576  -7.4319  -7.4081  -7.4001  -7.3317
    -7.3171  -7.0591  -7.0296  -7.0207  -7.0031  -6.8365  -6.7844  -6.7529
    -6.6662  -6.6121  -6.5275  -6.5243  -6.5166  -6.4770  -6.4116  -6.3798
    -6.3216  -6.1857  -6.1145  -6.0834  -6.0723  -6.0688  -6.0556  -5.9439
    -5.8835  -5.8748  -5.8518  -5.8472  -5.8108  -5.7643  -5.6776  -5.5523
    -5.5075  -5.4640  -5.4395  -5.3724  -5.3228  -5.2199  -5.2142  -5.1863
    -5.1205  -4.9088  -4.8900  -4.8734  -4.8633  -4.8469  -4.8335  -4.7880
    -4.7782  -4.7107  -4.5161  -4.5033  -4.4929  -4.4394  -4.4082  -4.3473
    -4.2476  -4.2301  -3.9571  -3.9386  -3.9116  -3.8073  -3.6430  -3.6360
    -3.0967  -3.0085  -2.9689  -2.8365  -2.7827  -2.7379  -2.5877  -2.5820
    -2.5468  -2.5192  -2.3547  -2.2015  -2.1939  -2.0851  -1.9739  -1.9654
    -1.9318  -1.8204  -1.7396  -1.6525  -1.5348  -1.5060  -1.4294  -1.3531
    -1.2503  -1.2250  -1.1992  -1.1306  -1.0802  -1.0668  -0.8827  -0.8542
    -0.6518  -0.5765  -0.4637  -0.2862  -0.2635  -0.2159  -0.0485   0.1484
     0.2741   0.2943   0.3857   0.7819   0.8853   1.0223   1.1642   1.3132
     1.3955   1.4273   1.4331   1.6409   1.7816   2.0502   2.1175   2.4884
     2.5154   2.8801   3.0069   3.1281   3.2634   3.5680

          k = 0.3000 0.3000 0.0127     band energies (ev):

  -122.6973-119.9255-119.8426-119.2472-119.1606-118.8641-118.3423-117.8851
  -117.6226-117.4230-117.2543-110.5223 -80.3594 -80.3044 -80.2990 -77.6734
   -77.5110 -77.4793 -77.2680 -77.2184 -77.1918 -76.8130 -76.7404 -76.6919
   -76.5696 -76.5685 -76.5264 -76.4391 -76.4364 -76.4296 -75.9424 -75.9091
   -75.5683 -75.5266 -75.4886 -75.3917 -75.3285 -75.1470 -75.0792 -75.0423
   -75.0241 -74.8623 -74.8515 -74.7825 -74.5932 -68.7766 -68.5396 -67.5058
   -63.4952 -57.5104 -51.6951 -51.0003 -50.6656 -48.2016 -45.1776 -44.1260
   -43.6723 -41.9463 -41.2530 -40.7938 -40.0663 -40.0299 -39.9288 -37.1393
   -35.9978 -35.9062 -34.2164 -34.1940 -33.3860 -31.8451 -31.1971 -31.1644
   -31.0436 -30.0238 -29.5155 -29.3877 -29.2437 -29.2232 -29.0054 -28.9114
   -28.5706 -28.4787 -28.0213 -27.3524 -27.2240 -26.8736 -26.8076 -26.6117
   -26.4191 -26.3694 -26.2260 -26.1913 -26.1766 -26.1061 -26.0478 -25.9062
   -25.8929 -25.7816 -25.7482 -25.6621 -25.5703 -25.4609 -25.1356 -24.7815
   -24.7040 -24.5385 -23.9493 -23.9209 -23.8887 -23.6363 -23.6230 -23.4540
   -23.4210 -23.2930 -23.1419 -23.1099 -22.9686 -22.5216 -22.4354 -22.4329
   -22.3135 -22.1568 -22.0145 -21.9884 -21.9360 -21.9358 -21.9167 -21.7525
   -21.5446 -21.4446 -21.3949 -21.3608 -21.2433 -21.1775 -21.1411 -21.0665
   -20.9737 -20.8926 -20.8781 -20.8299 -20.7328 -20.6984 -20.4387 -20.3470
   -20.2659 -20.1926 -20.0825 -19.9774 -19.9641 -19.8560 -19.7991 -19.6454
   -19.3489 -19.1765 -19.0661 -18.8735 -17.4985 -17.1974 -17.1174 -14.8620
   -14.7103 -14.5788 -14.5421 -14.3743 -14.3456 -14.1851 -14.1655 -14.0972
   -14.0626 -14.0407 -13.8538 -13.8071 -13.7961 -13.7686 -13.7163 -13.7127
   -13.4131 -13.3787 -13.2868 -13.2698 -13.1629 -13.1227 -13.0945 -13.0363
   -12.9084 -12.8525 -12.7951 -12.7723 -12.4675 -12.4070 -12.3435 -12.3032
   -12.2103 -12.0517 -11.9959 -11.9604 -11.9071 -11.7068 -11.6872 -11.6038
   -11.6009 -11.5811 -11.5694 -11.5043 -11.3193 -11.1687 -11.1638 -11.1070
   -11.0836 -10.9661 -10.9634 -10.8972 -10.8352 -10.8326 -10.8053 -10.6937
   -10.6382 -10.6170 -10.4573 -10.3798 -10.2484 -10.1805 -10.1456 -10.1395
   -10.1029 -10.0794 -10.0369  -9.9386  -9.9248  -9.8125  -9.7622  -9.7561
    -9.7397  -9.7348  -9.7195  -9.6733  -9.6353  -9.5760  -9.5587  -9.4356
    -9.4167  -9.3922  -9.3888  -9.3809  -9.3114  -9.2650  -9.2563  -9.2141
    -9.1394  -9.0602  -9.0472  -8.9758  -8.9707  -8.9609  -8.9141  -8.8895
    -8.8665  -8.8622  -8.8169  -8.7934  -8.7809  -8.7660  -8.7427  -8.7025
    -8.6903  -8.5929  -8.5803  -8.5321  -8.4814  -8.4742  -8.4466  -8.4167
    -8.3892  -8.3886  -8.2892  -8.2537  -8.2323  -8.1681  -8.1582  -8.1251
    -8.0887  -8.0391  -7.9468  -7.8883  -7.8377  -7.8035  -7.8029  -7.7639
    -7.7353  -7.5723  -7.5592  -7.5551  -7.4518  -7.4491  -7.2421  -7.1155
    -7.0665  -7.0489  -6.9469  -6.9403  -6.9278  -6.9212  -6.8160  -6.7912
    -6.7617  -6.6815  -6.5682  -6.4915  -6.4382  -6.3526  -6.3410  -6.2686
    -6.2065  -6.0576  -6.0173  -6.0006  -5.9508  -5.8004  -5.7919  -5.7615
    -5.7282  -5.7053  -5.6678  -5.5806  -5.5149  -5.4746  -5.4219  -5.3853
    -5.3120  -5.2500  -5.2220  -5.2040  -5.1777  -5.1308  -5.0050  -5.0015
    -4.9365  -4.9266  -4.8575  -4.8541  -4.8314  -4.7401  -4.6765  -4.6490
    -4.6435  -4.5803  -4.4999  -4.4776  -4.4390  -4.3786  -4.3352  -4.1759
    -4.1362  -4.1238  -3.9552  -3.7520  -3.6423  -3.4965  -3.4200  -3.2704
    -3.2091  -3.0817  -3.0171  -3.0135  -2.9602  -2.9014  -2.7705  -2.7259
    -2.6651  -2.5604  -2.5564  -2.5193  -2.4260  -2.2701  -2.2691  -2.1382
    -2.1328  -1.9639  -1.9580  -1.7233  -1.6727  -1.6133  -1.5766  -1.5145
    -1.4737  -1.1827  -1.1533  -1.1297  -0.9567  -0.9536  -0.8858  -0.7964
    -0.6796  -0.6720  -0.4062  -0.3771  -0.2026  -0.1260  -0.0797   0.0991
     0.2678   0.3238   0.3671   0.4476   0.5645   0.6716   1.1919   1.3552
     1.6192   1.7955   1.8830   2.1635   2.4863   2.6730   2.8490   2.9817
     3.0970   3.2577   3.7705   3.8354   4.0913   4.3427

          k = 0.3000-0.5000 0.0127     band energies (ev):

  -122.6971-119.9255-119.8425-119.2471-119.1606-118.8641-118.3422-117.8851
  -117.6226-117.4230-117.2543-110.5222 -80.3594 -80.3043 -80.2990 -77.6734
   -77.5110 -77.4792 -77.2680 -77.2184 -77.1918 -76.8130 -76.7404 -76.6919
   -76.5696 -76.5684 -76.5264 -76.4391 -76.4364 -76.4296 -75.9424 -75.9091
   -75.5683 -75.5266 -75.4885 -75.3917 -75.3285 -75.1470 -75.0792 -75.0423
   -75.0241 -74.8623 -74.8514 -74.7824 -74.5932 -68.7765 -68.5395 -67.5058
   -63.4948 -57.5100 -51.6938 -50.9971 -50.6630 -48.1986 -45.1731 -44.1201
   -43.6667 -41.9425 -41.2468 -40.7895 -40.1004 -40.0283 -39.9271 -37.1316
   -35.9702 -35.8800 -34.2329 -34.2156 -33.3848 -31.8128 -31.2782 -31.1868
   -31.0022 -30.2706 -29.4942 -29.3830 -29.3390 -29.2214 -28.9997 -28.8758
   -28.5669 -28.4473 -27.9950 -27.5782 -27.3030 -26.8908 -26.5728 -26.4928
   -26.4779 -26.3759 -26.3607 -26.2035 -26.1560 -26.1403 -26.1285 -25.8091
   -25.7804 -25.7183 -25.6806 -25.6679 -25.5759 -25.4957 -24.9183 -24.8911
   -24.7493 -24.1001 -24.0869 -24.0255 -23.8475 -23.5799 -23.4383 -23.4294
   -23.2884 -23.2462 -23.1379 -23.0954 -23.0342 -22.7242 -22.4115 -22.2346
   -22.1593 -22.0544 -22.0084 -21.9346 -21.9113 -21.8752 -21.7434 -21.4700
   -21.4369 -21.3621 -21.3434 -21.3386 -21.2436 -21.2090 -21.1662 -21.1410
   -21.1223 -21.0233 -20.9713 -20.9104 -20.7111 -20.5953 -20.4460 -20.4312
   -20.3112 -20.1721 -20.0896 -19.9903 -19.8872 -19.7020 -19.6311 -19.4812
   -19.3069 -19.2108 -19.1426 -18.8948 -17.5626 -17.3808 -17.1935 -15.2158
   -14.9545 -14.7117 -14.6671 -14.6060 -14.3936 -14.3337 -14.2964 -14.1754
   -14.1496 -14.1316 -14.1129 -14.0439 -14.0210 -13.8185 -13.8064 -13.7551
   -13.7257 -13.6986 -13.4166 -13.3750 -13.2996 -13.1829 -13.1519 -13.0971
   -13.0606 -12.9326 -12.8585 -12.7657 -12.5427 -12.5101 -12.4326 -12.3280
   -12.2941 -12.2514 -12.1618 -12.0294 -11.9283 -11.8680 -11.8250 -11.7597
   -11.7054 -11.6686 -11.5656 -11.5653 -11.5596 -11.5259 -11.4376 -11.1715
   -11.1308 -11.0363 -10.9456 -10.9048 -10.8807 -10.8404 -10.8234 -10.7693
   -10.7266 -10.6869 -10.6234 -10.5640 -10.4904 -10.4360 -10.3308 -10.2783
   -10.2591 -10.2112 -10.2065 -10.0975  -9.9749  -9.8712  -9.8363  -9.8204
    -9.7903  -9.7713  -9.7689  -9.6710  -9.6572  -9.6324  -9.5483  -9.5115
    -9.5040  -9.4659  -9.4077  -9.3963  -9.3665  -9.3603  -9.3539  -9.2645
    -9.2237  -9.0695  -9.0401  -9.0188  -9.0131  -8.9763  -8.8903  -8.8896
    -8.8542  -8.8372  -8.8262  -8.8239  -8.7731  -8.7320  -8.7207  -8.6860
    -8.6403  -8.5633  -8.5500  -8.5354  -8.5152  -8.5102  -8.4977  -8.4825
    -8.3800  -8.3616  -8.3468  -8.2970  -8.2523  -8.2420  -8.2162  -8.1430
    -8.1215  -8.0176  -7.9948  -7.9216  -7.8808  -7.8797  -7.8535  -7.8018
    -7.7848  -7.7005  -7.5563  -7.5522  -7.4281  -7.3396  -7.3267  -7.1300
    -7.0595  -6.9094  -6.8817  -6.8127  -6.8033  -6.7126  -6.7083  -6.6016
    -6.5964  -6.5659  -6.4775  -6.3589  -6.2197  -6.1520  -6.1396  -6.0811
    -6.0137  -5.9512  -5.7952  -5.7382  -5.6645  -5.6305  -5.6283  -5.5931
    -5.5242  -5.4860  -5.3725  -5.3403  -5.2507  -5.1852  -5.1101  -5.0991
    -5.0834  -5.0117  -4.9912  -4.8977  -4.8165  -4.7989  -4.7212  -4.5850
    -4.5428  -4.5192  -4.4390  -4.3578  -4.2851  -4.2397  -4.2183  -4.1998
    -4.1585  -4.0887  -4.0635  -3.9468  -3.7628  -3.7133  -3.6168  -3.3797
    -3.3245  -3.2708  -3.1700  -3.0324  -2.9700  -2.9395  -2.8487  -2.8041
    -2.7954  -2.7086  -2.6174  -2.5553  -2.5357  -2.4565  -2.4252  -2.3117
    -2.2773  -2.1876  -2.1358  -2.0896  -2.0407  -1.8345  -1.8055  -1.7493
    -1.6707  -1.6472  -1.5430  -1.4749  -1.2599  -1.2304  -1.1453  -0.9407
    -0.9245  -0.8287  -0.7914  -0.7522  -0.6002  -0.4786  -0.3834  -0.3521
    -0.2467  -0.1185  -0.0701  -0.0569   0.0439   0.1487   0.1647   0.1729
     0.2880   0.5296   0.5958   0.6266   0.7766   1.2144   1.2737   1.5601
     1.7109   1.7844   1.8145   1.9321   2.0609   2.1441   2.2095   2.5435
     2.5868   2.8844   3.2866   3.3685   3.5896   3.8420

          k =-0.5000-0.5000 0.0127     band energies (ev):

  -122.6973-119.9254-119.8425-119.2472-119.1606-118.8641-118.3423-117.8851
  -117.6226-117.4230-117.2543-110.5222 -80.3594 -80.3044 -80.2990 -77.6734
[...]
     atom   48 type  4   force =     0.00000000    0.00000000    0.00329047
     atom   49 type  4   force =     0.00000000    0.00000000    0.00423095
     atom   50 type  4   force =     0.00000000    0.00000000    0.00449677
     atom   51 type  4   force =     0.00000000    0.00000000    0.00505410
     atom   52 type  4   force =     0.00000000    0.00000000   -0.00360344
     atom   53 type  4   force =     0.00000000    0.00000000   -0.00421278
     atom   54 type  4   force =     0.00000000    0.00000000   -0.00426206
     atom   55 type  4   force =     0.00000000    0.00000000   -0.01208070
     atom   56 type  4   force =     0.00000000    0.00000000    0.00911527
     atom   57 type  4   force =     0.00000000    0.00000000    0.00296540
     atom   58 type  4   force =     0.00000000    0.00000000    0.00302884
     atom   59 type  4   force =     0.00000000    0.00000000    0.00433555
     atom   60 type  4   force =     0.00000000    0.00000000   -0.00063165
     atom   61 type  4   force =     0.00000000    0.00000000   -0.00283552
     atom   62 type  4   force =     0.00000000    0.00000000   -0.00258187
     atom   63 type  4   force =     0.00000000    0.00000000   -0.00027177
     atom   64 type  4   force =     0.00000000    0.00000000    0.00666399
     atom   65 type  4   force =     0.00000000    0.00000000    0.00301961
     atom   66 type  4   force =     0.00000000    0.00000000    0.00303252
     atom   67 type  4   force =     0.00000000    0.00000000    0.00354903
     atom   68 type  4   force =     0.00000000    0.00000000   -0.00184182
     atom   69 type  4   force =     0.00000000    0.00000000   -0.00282952
     atom   70 type  4   force =     0.00000000    0.00000000   -0.00257884
     atom   71 type  4   force =     0.00000000    0.00000000   -0.00007298
     atom   72 type  4   force =     0.00000000    0.00000000    0.01435762
     atom   73 type  4   force =     0.00000000    0.00000000    0.00032567
     atom   74 type  4   force =     0.00000000    0.00000000    0.00004367
     atom   75 type  4   force =     0.00000000    0.00000000    0.00020894

     Total force =     0.077294     Total SCF correction =     0.025535
     SCF correction compared to forces is large: reduce conv_thr to get better values


     entering subroutine stress ...


     negative rho (up, down):  0.118E+01 0.000E+00
          total   stress  (Ry/bohr**3)                   (kbar)     P=  -12.33
  -0.00014849   0.00000000   0.00000000        -21.84      0.00      0.00
   0.00000000  -0.00012857   0.00000000          0.00    -18.91      0.00
   0.00000000   0.00000000   0.00002556          0.00      0.00      3.76


     Entering Dynamics;  it =    16   time =  0.01452 pico-seconds

  new lattice vectors (alat unit) :
   1.000000000   0.000000000   0.000000000
   0.000000000   1.000000000   0.000000000
   0.000000000   0.000000000  19.623652420
  new unit-cell volume =   8036.8858 (a.u.)^3
  new positions in cryst coord
Sr       0.500000000   0.500000000   0.025176988
Sr       0.500000000   0.500000000   0.075864133
Sr       0.500000000   0.500000000   0.126429782
Sr       0.500000000   0.500000000   0.176995472
Ti       0.000000000   0.000000000   0.000553093
Ti       0.000000000   0.000000000   0.202440805
Ti       0.000000000   0.000000000   0.050726835
Ti       0.000000000   0.000000000   0.101287480
Ti       0.000000000   0.000000000   0.151867482
O        0.500000000   0.000000000  -0.000369678
O        0.500000000   0.000000000   0.201758211
O        0.500000000   0.000000000   0.050446866
O        0.500000000   0.000000000   0.100966953
O        0.500000000   0.000000000   0.151500859
O        0.000000000   0.500000000  -0.000369729
O        0.000000000   0.500000000   0.201759735
O        0.000000000   0.500000000   0.050446834
O        0.000000000   0.500000000   0.100966938
O        0.000000000   0.500000000   0.151500759
O        0.000000000   0.000000000   0.024579249
O        0.000000000   0.000000000   0.075419692
O        0.000000000   0.000000000   0.125994754
O        0.000000000   0.000000000   0.176419964
Ba       0.500000000   0.500000000   0.229793288
Ba       0.500000000   0.500000000   0.380642673
Ba       0.500000000   0.500000000   0.531456387
Ba       0.500000000   0.500000000   0.682269997
Ba       0.500000000   0.500000000   0.325458294
Ba       0.500000000   0.500000000   0.476274093
Ba       0.500000000   0.500000000   0.627087820
Ba       0.500000000   0.500000000   0.777947585
Y        0.500000000   0.500000000   0.277624318
Y        0.500000000   0.500000000   0.428458573
Y        0.500000000   0.500000000   0.579272292
Y        0.500000000   0.500000000   0.730076574
Cu       0.000000000   0.000000000   0.805404961
Cu       0.000000000   0.000000000   0.353052693
Cu       0.000000000   0.000000000   0.503866115
Cu       0.000000000   0.000000000   0.654679201
Cu       0.000000000   0.000000000   0.255658904
Cu       0.000000000   0.000000000   0.406488525
Cu       0.000000000   0.000000000   0.557300084
Cu       0.000000000   0.000000000   0.708112446
Cu       0.000000000   0.000000000   0.299615515
Cu       0.000000000   0.000000000   0.450431883
Cu       0.000000000   0.000000000   0.601245131
Cu       0.000000000   0.000000000   0.752058457
O        0.000000000   0.000000000   0.227480430
O        0.000000000   0.000000000   0.377320648
O        0.000000000   0.000000000   0.528129789
O        0.000000000   0.000000000   0.678952197
O        0.000000000   0.000000000   0.328791200
O        0.000000000   0.000000000   0.479601517
O        0.000000000   0.000000000   0.630418711
O        0.000000000   0.000000000   0.780875632
O        0.500000000   0.000000000   0.259296737
O        0.500000000   0.000000000   0.409928979
O        0.500000000   0.000000000   0.560742808
O        0.500000000   0.000000000   0.711589351
O        0.500000000   0.000000000   0.296222316
O        0.500000000   0.000000000   0.446988612
O        0.500000000   0.000000000   0.597803079
O        0.500000000   0.000000000   0.748697509
O        0.000000000   0.500000000   0.259359385
O        0.000000000   0.500000000   0.410066930
O        0.000000000   0.500000000   0.560880364
O        0.000000000   0.500000000   0.711699290
O        0.000000000   0.500000000   0.296060791
O        0.000000000   0.500000000   0.446851713
O        0.000000000   0.500000000   0.597665516
O        0.000000000   0.500000000   0.748564848
O        0.000000000   0.500000000   0.805941337
O        0.000000000   0.500000000   0.353057097
O        0.000000000   0.500000000   0.503866085
O        0.000000000   0.500000000   0.654679779
  new positions in cart coord (alat unit)
Sr       0.500000000   0.500000000   0.494064459
Sr       0.500000000   0.500000000   1.488731373
Sr       0.500000000   0.500000000   2.481014091
Sr       0.500000000   0.500000000   3.473297614
Ti       0.000000000   0.000000000   0.010853696
Ti       0.000000000   0.000000000   3.972627987
Ti       0.000000000   0.000000000   0.995445785
Ti       0.000000000   0.000000000   1.987630294
Ti       0.000000000   0.000000000   2.980194689
O        0.500000000   0.000000000  -0.007254431
O        0.500000000   0.000000000   3.959233011
O        0.500000000   0.000000000   0.989951758
O        0.500000000   0.000000000   1.981340393
O        0.500000000   0.000000000   2.973000193
O        0.000000000   0.500000000  -0.007255434
O        0.000000000   0.500000000   3.959262910
O        0.000000000   0.500000000   0.989951137
O        0.000000000   0.500000000   1.981340101
O        0.000000000   0.500000000   2.972998245
O        0.000000000   0.000000000   0.482334636
O        0.000000000   0.000000000   1.480009814
O        0.000000000   0.000000000   2.472477255
O        0.000000000   0.000000000   3.462004047
Ba       0.500000000   0.500000000   4.509383622
Ba       0.500000000   0.500000000   7.469599510
Ba       0.500000000   0.500000000  10.429115421
Ba       0.500000000   0.500000000  13.388629275
Ba       0.500000000   0.500000000   6.386680441
Ba       0.500000000   0.500000000   9.346237252
Ba       0.500000000   0.500000000  12.305753408
Ba       0.500000000   0.500000000  15.266173002
Y        0.500000000   0.500000000   5.448003113
Y        0.500000000   0.500000000   8.407922123
Y        0.500000000   0.500000000  11.367438110
Y        0.500000000   0.500000000  14.326768923
Cu       0.000000000   0.000000000  15.804987022
Cu       0.000000000   0.000000000   6.928183333
Cu       0.000000000   0.000000000   9.887693503
Cu       0.000000000   0.000000000  12.847197086
Cu       0.000000000   0.000000000   5.016961467
Cu       0.000000000   0.000000000   7.976789536
Cu       0.000000000   0.000000000  10.936263133
Cu       0.000000000   0.000000000  13.895752511
Cu       0.000000000   0.000000000   5.879550727
Cu       0.000000000   0.000000000   8.839118702
Cu       0.000000000   0.000000000  11.798625461
Cu       0.000000000   0.000000000  14.758133765
O        0.000000000   0.000000000   4.463996882
O        0.000000000   0.000000000   7.404409242
O        0.000000000   0.000000000  10.363835415
O        0.000000000   0.000000000  13.323521920
O        0.000000000   0.000000000   6.452084235
O        0.000000000   0.000000000   9.411533475
O        0.000000000   0.000000000  12.371117671
O        0.000000000   0.000000000  15.323631995
O        0.500000000   0.000000000   5.088349041
O        0.500000000   0.000000000   8.044303795
O        0.500000000   0.000000000  11.003821968
O        0.500000000   0.000000000  13.963982084
O        0.500000000   0.000000000   5.812963766
O        0.500000000   0.000000000   8.771549149
O        0.500000000   0.000000000  11.731079832
O        0.500000000   0.000000000  14.692179692
O        0.000000000   0.500000000   5.089578425
O        0.000000000   0.500000000   8.047010913
O        0.000000000   0.500000000  11.006521317
O        0.000000000   0.500000000  13.966139487
O        0.000000000   0.500000000   5.809794062
O        0.000000000   0.500000000   8.768862692
O        0.000000000   0.500000000  11.728380355
O        0.000000000   0.500000000  14.689576387
O        0.000000000   0.500000000  15.815512660
O        0.000000000   0.500000000   6.928269764
O        0.000000000   0.500000000   9.887692918
O        0.000000000   0.500000000  12.847208431

     Ekin =     0.02307670 Ry    T =   16.8 K  Etot = -7964.39751731
     new unit-cell volume =   8036.88575 a.u.^3 (  1190.94358 Ang^3 )

CELL_PARAMETERS (alat=  7.42624576)
   1.000000000   0.000000000   0.000000000
   0.000000000   1.000000000   0.000000000
   0.000000000   0.000000000  19.623652420

ATOMIC_POSITIONS (angstrom)
Sr       1.964900000   1.964900000   1.941574511    0   0   1
Sr       1.964900000   1.964900000   5.850416548    0   0   1
Sr       1.964900000   1.964900000   9.749889175    0   0   1
Sr       1.964900000   1.964900000  13.649364964    0   0   1
Ti       0.000000000   0.000000000   0.042652853    0   0   1
Ti       0.000000000   0.000000000  15.611633465    0   0   1
Ti       0.000000000   0.000000000   3.911902847    0   0   1
Ti       0.000000000   0.000000000   7.810989529    0   0   1
Ti       0.000000000   0.000000000  11.711569088    0   0   1
O        1.964900000   0.000000000  -0.028508463    0   0   1
O        1.964900000   0.000000000  15.558993886    0   0   1
O        1.964900000   0.000000000   3.890312420    0   0   1
O        1.964900000   0.000000000   7.786271478    0   0   1
O        1.964900000   0.000000000  11.683296157    0   0   1
O        0.000000000   1.964900000  -0.028512405    0   0   1
O        0.000000000   1.964900000  15.559111382    0   0   1
O        0.000000000   1.964900000   3.890309978    0   0   1
O        0.000000000   1.964900000   7.786270330    0   0   1
O        0.000000000   1.964900000  11.683288501    0   0   1
O        0.000000000   0.000000000   1.895478651    0   0   1
O        0.000000000   0.000000000   5.816142569    0   0   1
O        0.000000000   0.000000000   9.716341116    0   0   1
O        0.000000000   0.000000000  13.604983502    0   0   1
Ba       1.964900000   1.964900000  17.720975757    0   0   1
Ba       1.964900000   1.964900000  29.354032155    0   0   1
Ba       1.964900000   1.964900000  40.984337781    0   0   1
Ba       1.964900000   1.964900000  52.614635324    0   0   1
Ba       1.964900000   1.964900000  25.098376799    0   0   1
Ba       1.964900000   1.964900000  36.728843152    0   0   1
Ba       1.964900000   1.964900000  48.359149742    0   0   1
Ba       1.964900000   1.964900000  59.993006665    0   0   1
Y        1.964900000   1.964900000  21.409562633    0   0   1
Y        1.964900000   1.964900000  33.041452358    0   0   1
Y        1.964900000   1.964900000  44.671758284    0   0   1
Y        1.964900000   1.964900000  56.301336512    0   0   1
Cu       0.000000000   0.000000000  62.110437998    0   0   1
Cu       0.000000000   0.000000000  27.226374861    0   0   1
Cu       0.000000000   0.000000000  38.856657928    0   0   1
Cu       0.000000000   0.000000000  50.486915108    0   0   1
Cu       0.000000000   0.000000000  19.715655173    0   0   1
Cu       0.000000000   0.000000000  31.347187517    0   0   1
Cu       0.000000000   0.000000000  42.977326859    0   0   1
Cu       0.000000000   0.000000000  54.607528218    0   0   1
Cu       0.000000000   0.000000000  23.105458445    0   0   1
Cu       0.000000000   0.000000000  34.735968677    0   0   1
Cu       0.000000000   0.000000000  46.366238338    0   0   1
Cu       0.000000000   0.000000000  57.996514070    0   0   1
O        0.000000000   0.000000000  17.542614948    0   0   1
O        0.000000000   0.000000000  29.097847438    0   0   1
O        0.000000000   0.000000000  40.727800413    0   0   1
O        0.000000000   0.000000000  52.358776442    0   0   1
O        0.000000000   0.000000000  25.355400628    0   0   1
O        0.000000000   0.000000000  36.985444250    0   0   1
O        0.000000000   0.000000000  48.616018224    0   0   1
O        0.000000000   0.000000000  60.218809015    0   0   1
O        1.964900000   0.000000000  19.996194060    0   0   1
O        1.964900000   0.000000000  31.612505055    0   0   1
O        1.964900000   0.000000000  43.242819569    0   0   1
O        1.964900000   0.000000000  54.875656793    0   0   1
O        1.964900000   0.000000000  22.843785007    0   0   1
O        1.964900000   0.000000000  34.470433847    0   0   1
O        1.964900000   0.000000000  46.100797525    0   0   1
O        1.964900000   0.000000000  57.737327755    0   0   1
O        0.000000000   1.964900000  20.001025294    0   0   1
O        0.000000000   1.964900000  31.623143486    0   0   1
O        0.000000000   1.964900000  43.253427473    0   0   1
O        0.000000000   1.964900000  54.884134955    0   0   1
O        0.000000000   1.964900000  22.831328705    0   0   1
O        0.000000000   1.964900000  34.459876606    0   0   1
O        0.000000000   1.964900000  46.090189119    0   0   1
O        0.000000000   1.964900000  57.727097286    0   0   1
O        0.000000000   1.964900000  62.151801652    0   0   1
O        0.000000000   1.964900000  27.226714519    0   0   1
O        0.000000000   1.964900000  38.856655631    0   0   1
O        0.000000000   1.964900000  50.486959690    0   0   1



     Writing output data file 2.test_1_2.save
     Check: negative starting charge=   -1.229685
     NEW-OLD atomic charge density approx. for the potential
     NEW k-points:
        k(    1) = (   0.1000000   0.1000000   0.0127397), wk =   0.3200000
        k(    2) = (   0.1000000   0.3000000   0.0127397), wk =   0.3200000
        k(    3) = (   0.1000000  -0.5000000   0.0127397), wk =   0.1600000
        k(    4) = (   0.3000000   0.3000000   0.0127397), wk =   0.3200000
        k(    5) = (   0.3000000  -0.5000000   0.0127397), wk =   0.1600000
        k(    6) = (  -0.5000000  -0.5000000   0.0127397), wk =   0.0800000
        k(    7) = (   0.3000000   0.1000000  -0.0127397), wk =   0.3200000
        k(    8) = (  -0.5000000   0.1000000  -0.0127397), wk =   0.1600000
        k(    9) = (  -0.5000000   0.3000000  -0.0127397), wk =   0.1600000

     Check: negative/imaginary core charge=   -0.000021    0.000000
     Check: negative starting charge=   -1.229312

     negative rho (up, down):  0.118E+01 0.000E+00

     total cpu time spent up to now is   105536.3 secs

     per-process dynamical memory:   157.4 Mb

     Self-consistent Calculation

     iteration #  1     ecut=    40.00 Ry     beta=0.15
     Davidson diagonalization with overlap
     ethr =  1.00E-06,  avg # of iterations = 11.9


 %%%%%%%%%%%%%%%%%%%%%%%%%%%%%%%%%%%%%%%%%%%%%%%%%%%%%%%%%%%%%%%%%%%%%%%%%%%%%%
 %%%%%%%%%%%%%%%%%%%%%%%%%%%%%%%%%%%%%%%%%%%%%%%%%%%%%%%%%%%%%%%%%%%%%%%%%%%%%%
     from davcio : error #        10
     from davcio : error #        10
     error while writing to file
     error while writing to file
 %%%%%%%%%%%%%%%%%%%%%%%%%%%%%%%%%%%%%%%%%%%%%%%%%%%%%%%%%%%%%%%%%%%%%%%%%%%%%%

     stopping ...
 %%%%%%%%%%%%%%%%%%%%%%%%%%%%%%%%%%%%%%%%%%%%%%%%%%%%%%%%%%%%%%%%%%%%%%%%%%%%%%

     stopping ...
Exit code -3 signaled from a554
Killing remote processes...[26] [MPI Abort by user] Aborting Program!
[19] [MPI Abort by user] Aborting Program!
Abort signaled by rank 26: MPI Abort by user Aborting program !
forrtl: error (69): process interrupted (SIGINT)
forrtl: error (69): process interrupted (SIGINT)
forrtl: error (69): process interrupted (SIGINT)
forrtl: error (69): process interrupted (SIGINT)
forrtl: error (69): process interrupted (SIGINT)
forrtl: error (69): process interrupted (SIGINT)
forrtl: error (69): process interrupted (SIGINT)
forrtl: error (69): process interrupted (SIGINT)
forrtl: error (69): process interrupted (SIGINT)
forrtl: error (69): process interrupted (SIGINT)
forrtl: error (69): process interrupted (SIGINT)
forrtl: error (69): process interrupted (SIGINT)
forrtl: error (69): process interrupted (SIGINT)
forrtl: error (69): process interrupted (SIGINT)
forrtl: error (69): process interrupted (SIGINT)
forrtl: error (69): process interrupted (SIGINT)
DONE

 %%%%%%%%%%%%%%%%%%%%%%%%%%%%%%%%%%%%%%%%%%%%%%%%%%%%%%%%%%%%%%%%%%%%%%%%%%%%%%
     from davcio : error #        10
     error while writing to file
 %%%%%%%%%%%%%%%%%%%%%%%%%%%%%%%%%%%%%%%%%%%%%%%%%%%%%%%%%%%%%%%%%%%%%%%%%%%%%%

     stopping ...
[57] [MPI Abort by user] Aborting Program!
Abort signaled by rank 57: MPI Abort by user Aborting program !
forrtl: error (69): process interrupted (SIGINT)
forrtl: error (69): process interrupted (SIGINT)
forrtl: error (69): process interrupted (SIGINT)
forrtl: error (69): process interrupted (SIGINT)
forrtl: error (69): process interrupted (SIGINT)
forrtl: error (69): process interrupted (SIGINT)
forrtl: error (69): process interrupted (SIGINT)
forrtl: error (69): process interrupted (SIGINT)
forrtl: error (69): process interrupted (SIGINT)
forrtl: error (69): process interrupted (SIGINT)
forrtl: error (69): process interrupted (SIGINT)
forrtl: error (69): process interrupted (SIGINT)
forrtl: error (69): process interrupted (SIGINT)
forrtl: error (69): process interrupted (SIGINT)
forrtl: error (69): process interrupted (SIGINT)
forrtl: error (69): process interrupted (SIGINT)
MPI process terminated unexpectedly
forrtl: error (69): process interrupted (SIGINT)
forrtl: error (69): process interrupted (SIGINT)
forrtl: error (69): process interrupted (SIGINT)
Jan 15 14:01:16 2014 13926 Jan 15 14:01:16 2014 13929 3 7.05 lsb_launch(): Failed while waiting for tasks to finish.
3 7.05 lsb_launch(): Failed while waiting for tasks to finish.
/usr/bin/ssh: line 17: 24668 Killed                  $SSH $*
/usr/bin/ssh: line 17: 24667 Killed                  $SSH $*
/usr/bin/ssh: line 17: 24669 Killed                  $SSH $*
Jan 15 14:02:47 2014 24670 3 7.05 lsb_launch(): Connection refused by server.
