ANIMSTEPS 100
SLAB
PRIMVEC 1
     3.9439985152    0.0000000000    0.0000000000
     0.0000000000    3.9439985152    0.0000000000
     0.0000000000    0.0000000000   25.5742983238
 PRIMCOORD 1
21 1
   Ba       1.9719992576     1.9719992576     6.0723422123       0.0000000000     0.0000000000    -0.0179843500
   Ba       1.9719992576     1.9719992576    13.4459499411       0.0000000000     0.0000000000     0.0208149000
    Y       1.9719992576     1.9719992576     9.7591454851       0.0000000000     0.0000000000    -0.0106720000
   Cu       0.0000000000     0.0000000000    15.5743031038       0.0000000000     0.0000000000    -0.0120057100
   Cu       0.0000000000     0.0000000000     8.0646124390       0.0000000000     0.0000000000     0.0009478900
   Cu       0.0000000000     0.0000000000    11.4536797143       0.0000000000     0.0000000000    -0.0051916300
    O       0.0000000000     0.0000000000     5.7955421421       0.0000000000     0.0000000000     0.0505945400
    O       0.0000000000     0.0000000000    13.7227515888       0.0000000000     0.0000000000    -0.0270604500
    O       0.0000000000     0.0000000000     1.9719992576       0.0000000000     0.0000000000    -0.0889338200
    O       1.9719992576     0.0000000000     8.3216420335       0.0000000000     0.0000000000     0.0142562000
    O       1.9719992576     0.0000000000    11.1966509087       0.0000000000     0.0000000000     0.0002093700
    O       1.9719992576     0.0000000000     0.0000000000       0.0000000000     0.0000000000    -0.0218897700
    O       1.9719992576     0.0000000000     3.9439989096       0.0000000000     0.0000000000    -0.0270465900
    O       0.0000000000     1.9719992576     0.0000000000       0.0000000000     0.0000000000    -0.0218867700
    O       0.0000000000     1.9719992576     3.9439989096       0.0000000000     0.0000000000    -0.0269865400
    O       0.0000000000     1.9719992576     8.3321097999       0.0000000000     0.0000000000     0.0107672300
    O       0.0000000000     1.9719992576    11.1861835366       0.0000000000     0.0000000000     0.0001923400
    O       0.0000000000     1.9719992576    15.5743031038       0.0000000000     0.0000000000     0.0197061000
   Sr       1.9719992576     1.9719992576     1.9719992576       0.0000000000     0.0000000000    -0.0037510400
   Ti       0.0000000000     0.0000000000     0.0000000000       0.0000000000     0.0000000000     0.1050490600
   Ti       0.0000000000     0.0000000000     3.9439989096       0.0000000000     0.0000000000     0.0408710500
PRIMVEC 2
     3.9439985152    0.0000000000    0.0000000000
     0.0000000000    3.9439985152    0.0000000000
     0.0000000000    0.0000000000   25.5743010333
 PRIMCOORD 2
21 1
   Ba       1.9719992576     1.9719992576     6.0723224228       0.0000000000     0.0000000000    -0.0171004600
   Ba       1.9719992576     1.9719992576    13.4459742030       0.0000000000     0.0000000000     0.0215604000
    Y       1.9719992576     1.9719992576     9.7591275721       0.0000000000     0.0000000000    -0.0101410800
   Cu       0.0000000000     0.0000000000    15.5742749004       0.0000000000     0.0000000000    -0.0203461800
   Cu       0.0000000000     0.0000000000     8.0646151255       0.0000000000     0.0000000000    -0.0094046400
   Cu       0.0000000000     0.0000000000    11.4536679459       0.0000000000     0.0000000000     0.0019804300
    O       0.0000000000     0.0000000000     5.7960320471       0.0000000000     0.0000000000     0.0502093700
    O       0.0000000000     0.0000000000    13.7224905276       0.0000000000     0.0000000000    -0.0262102800
    O       0.0000000000     0.0000000000     1.9711389452       0.0000000000     0.0000000000    -0.0873964900
    O       1.9719992576     0.0000000000     8.3217806808       0.0000000000     0.0000000000     0.0141838200
    O       1.9719992576     0.0000000000    11.1966536626       0.0000000000     0.0000000000     0.0012752500
    O       1.9719992576     0.0000000000    -0.0002118319       0.0000000000     0.0000000000    -0.0206970400
    O       1.9719992576     0.0000000000     3.9437373647       0.0000000000     0.0000000000    -0.0259602000
    O       0.0000000000     1.9719992576    -0.0002118064       0.0000000000     0.0000000000    -0.0206921000
    O       0.0000000000     1.9719992576     3.9437379529       0.0000000000     0.0000000000    -0.0259033500
    O       0.0000000000     1.9719992576     8.3322144074       0.0000000000     0.0000000000     0.0107081700
    O       0.0000000000     1.9719992576    11.1861860245       0.0000000000     0.0000000000     0.0012635900
    O       0.0000000000     1.9719992576    15.5744948394       0.0000000000     0.0000000000     0.0195450800
   Sr       1.9719992576     1.9719992576     1.9719929223       0.0000000000     0.0000000000    -0.0040257900
   Ti       0.0000000000     0.0000000000     0.0003396779       0.0000000000     0.0000000000     0.1056719000
   Ti       0.0000000000     0.0000000000     3.9441312601       0.0000000000     0.0000000000     0.0414796100
PRIMVEC 3
     3.9439985152    0.0000000000    0.0000000000
     0.0000000000    3.9439985152    0.0000000000
     0.0000000000    0.0000000000   25.5742998028
 PRIMCOORD 3
21 1
   Ba       1.9719992576     1.9719992576     6.0722729512       0.0000000000     0.0000000000    -0.0183472600
   Ba       1.9719992576     1.9719992576    13.4460334766       0.0000000000     0.0000000000     0.0202295200
    Y       1.9719992576     1.9719992576     9.7590820406       0.0000000000     0.0000000000    -0.0116601000
   Cu       0.0000000000     0.0000000000    15.5741705496       0.0000000000     0.0000000000    -0.0124617900
   Cu       0.0000000000     0.0000000000     8.0645826929       0.0000000000     0.0000000000     0.0024600100
   Cu       0.0000000000     0.0000000000    11.4536753995       0.0000000000     0.0000000000     0.0001953400
    O       0.0000000000     0.0000000000     5.7972501791       0.0000000000     0.0000000000     0.0489996300
    O       0.0000000000     0.0000000000    13.7218475432       0.0000000000     0.0000000000    -0.0268106700
    O       0.0000000000     0.0000000000     1.9690096621       0.0000000000     0.0000000000    -0.0876427000
    O       1.9719992576     0.0000000000     8.3221241268       0.0000000000     0.0000000000     0.0139613000
    O       1.9719992576     0.0000000000    11.1966736600       0.0000000000     0.0000000000     0.0005148700
    O       1.9719992576     0.0000000000    -0.0007240852       0.0000000000     0.0000000000    -0.0222744400
    O       1.9719992576     0.0000000000     3.9430986358       0.0000000000     0.0000000000    -0.0277133500
    O       0.0000000000     1.9719992576    -0.0007239573       0.0000000000     0.0000000000    -0.0222682200
    O       0.0000000000     1.9719992576     3.9431006051       0.0000000000     0.0000000000    -0.0276596400
    O       0.0000000000     1.9719992576     8.3324736368       0.0000000000     0.0000000000     0.0104804600
    O       0.0000000000     1.9719992576    11.1862056899       0.0000000000     0.0000000000     0.0004764400
    O       0.0000000000     1.9719992576    15.5749684933       0.0000000000     0.0000000000     0.0192513800
   Sr       1.9719992576     1.9719992576     1.9719755136       0.0000000000     0.0000000000    -0.0035284000
   Ti       0.0000000000     0.0000000000     0.0011919158       0.0000000000     0.0000000000     0.1035360700
   Ti       0.0000000000     0.0000000000     3.9444644057       0.0000000000     0.0000000000     0.0402615800
PRIMVEC 4
     3.9439985152    0.0000000000    0.0000000000
     0.0000000000    3.9439985152    0.0000000000
     0.0000000000    0.0000000000   25.5743045908
 PRIMCOORD 4
21 1
   Ba       1.9719992576     1.9719992576     6.0721938615       0.0000000000     0.0000000000    -0.0176332400
   Ba       1.9719992576     1.9719992576    13.4461301330       0.0000000000     0.0000000000     0.0213340700
    Y       1.9719992576     1.9719992576     9.7590083212       0.0000000000     0.0000000000    -0.0102069000
   Cu       0.0000000000     0.0000000000    15.5740243160       0.0000000000     0.0000000000    -0.0174000100
   Cu       0.0000000000     0.0000000000     8.0645959158       0.0000000000     0.0000000000    -0.0036571500
   Cu       0.0000000000     0.0000000000    11.4536862391       0.0000000000     0.0000000000    -0.0028484200
    O       0.0000000000     0.0000000000     5.7991809224       0.0000000000     0.0000000000     0.0476205100
    O       0.0000000000     0.0000000000    13.7208186493       0.0000000000     0.0000000000    -0.0260706400
    O       0.0000000000     0.0000000000     1.9656086738       0.0000000000     0.0000000000    -0.0838917700
    O       1.9719992576     0.0000000000     8.3226721822       0.0000000000     0.0000000000     0.0143739500
    O       1.9719992576     0.0000000000    11.1967037601       0.0000000000     0.0000000000     0.0006915100
    O       1.9719992576     0.0000000000    -0.0015596490       0.0000000000     0.0000000000    -0.0210288300
    O       1.9719992576     0.0000000000     3.9420585510       0.0000000000     0.0000000000    -0.0259452200
    O       0.0000000000     1.9719992576    -0.0015593165       0.0000000000     0.0000000000    -0.0210257300
    O       0.0000000000     1.9719992576     3.9420627196       0.0000000000     0.0000000000    -0.0259034600
    O       0.0000000000     1.9719992576     8.3328869431       0.0000000000     0.0000000000     0.0108893000
    O       0.0000000000     1.9719992576    11.1862348930       0.0000000000     0.0000000000     0.0006855100
    O       0.0000000000     1.9719992576    15.5757252630       0.0000000000     0.0000000000     0.0193462000
   Sr       1.9719992576     1.9719992576     1.9719492344       0.0000000000     0.0000000000    -0.0039559200
   Ti       0.0000000000     0.0000000000     0.0025463568       0.0000000000     0.0000000000     0.1032436100
   Ti       0.0000000000     0.0000000000     3.9449937907       0.0000000000     0.0000000000     0.0413826300
PRIMVEC 5
     3.9439985152    0.0000000000    0.0000000000
     0.0000000000    3.9439985152    0.0000000000
     0.0000000000    0.0000000000   25.5743008321
 PRIMCOORD 5
21 1
   Ba       1.9719992576     1.9719992576     6.0720829228       0.0000000000     0.0000000000    -0.0175689700
   Ba       1.9719992576     1.9719992576    13.4462583812       0.0000000000     0.0000000000     0.0205950300
    Y       1.9719992576     1.9719992576     9.7589046921       0.0000000000     0.0000000000    -0.0104976500
   Cu       0.0000000000     0.0000000000    15.5738092745       0.0000000000     0.0000000000    -0.0138668500
   Cu       0.0000000000     0.0000000000     8.0645843218       0.0000000000     0.0000000000    -0.0038371800
   Cu       0.0000000000     0.0000000000    11.4536774973       0.0000000000     0.0000000000     0.0009636600
    O       0.0000000000     0.0000000000     5.8018009245       0.0000000000     0.0000000000     0.0454706300
    O       0.0000000000     0.0000000000    13.7194067216       0.0000000000     0.0000000000    -0.0258194400
    O       0.0000000000     0.0000000000     1.9609893081       0.0000000000     0.0000000000    -0.0818234600
    O       1.9719992576     0.0000000000     8.3234260914       0.0000000000     0.0000000000     0.0136264900
    O       1.9719992576     0.0000000000    11.1967401691       0.0000000000     0.0000000000     0.0010091300
    O       1.9719992576     0.0000000000    -0.0027004671       0.0000000000     0.0000000000    -0.0213628900
    O       1.9719992576     0.0000000000     3.9406405416       0.0000000000     0.0000000000    -0.0269791200
    O       0.0000000000     1.9719992576    -0.0026999045       0.0000000000     0.0000000000    -0.0213599600
    O       0.0000000000     1.9719992576     3.9406475234       0.0000000000     0.0000000000    -0.0269354500
    O       0.0000000000     1.9719992576     8.3334555394       0.0000000000     0.0000000000     0.0101696700
    O       0.0000000000     1.9719992576    11.1862703317       0.0000000000     0.0000000000     0.0009707200
    O       0.0000000000     1.9719992576    15.5767576078       0.0000000000     0.0000000000     0.0194538900
   Sr       1.9719992576     1.9719992576     1.9719118107       0.0000000000     0.0000000000    -0.0037547700
   Ti       0.0000000000     0.0000000000     0.0044015418       0.0000000000     0.0000000000     0.1007645200
   Ti       0.0000000000     0.0000000000     3.9457225644       0.0000000000     0.0000000000     0.0407819900
PRIMVEC 6
     3.9439985152    0.0000000000    0.0000000000
     0.0000000000    3.9439985152    0.0000000000
     0.0000000000    0.0000000000   25.5742957247
 PRIMCOORD 6
21 1
   Ba       1.9719992576     1.9719992576     6.0719419466       0.0000000000     0.0000000000    -0.0175652100
   Ba       1.9719992576     1.9719992576    13.4464207268       0.0000000000     0.0000000000     0.0209007700
    Y       1.9719992576     1.9719992576     9.7587731326       0.0000000000     0.0000000000    -0.0102003900
   Cu       0.0000000000     0.0000000000    15.5735427490       0.0000000000     0.0000000000    -0.0174287600
   Cu       0.0000000000     0.0000000000     8.0645582877       0.0000000000     0.0000000000    -0.0026627700
   Cu       0.0000000000     0.0000000000    11.4536793018       0.0000000000     0.0000000000     0.0000247200
    O       0.0000000000     0.0000000000     5.8050806666       0.0000000000     0.0000000000     0.0423149300
    O       0.0000000000     0.0000000000    13.7176193050       0.0000000000     0.0000000000    -0.0248463500
    O       0.0000000000     0.0000000000     1.9551821448       0.0000000000     0.0000000000    -0.0757681100
    O       1.9719992576     0.0000000000     8.3243773530       0.0000000000     0.0000000000     0.0137644100
    O       1.9719992576     0.0000000000    11.1967906416       0.0000000000     0.0000000000     0.0006861900
    O       1.9719992576     0.0000000000    -0.0041513476       0.0000000000     0.0000000000    -0.0209805800
    O       1.9719992576     0.0000000000     3.9388307312       0.0000000000     0.0000000000    -0.0259820500
    O       0.0000000000     1.9719992576    -0.0041505292       0.0000000000     0.0000000000    -0.0209786200
    O       0.0000000000     1.9719992576     3.9388411144       0.0000000000     0.0000000000    -0.0259518700
    O       0.0000000000     1.9719992576     8.3341713108       0.0000000000     0.0000000000     0.0103205400
    O       0.0000000000     1.9719992576    11.1863192463       0.0000000000     0.0000000000     0.0006747700
    O       0.0000000000     1.9719992576    15.5780715476       0.0000000000     0.0000000000     0.0188401000
   Sr       1.9719992576     1.9719992576     1.9718643346       0.0000000000     0.0000000000    -0.0048563800
   Ti       0.0000000000     0.0000000000     0.0067455018       0.0000000000     0.0000000000     0.0987803200
   Ti       0.0000000000     0.0000000000     3.9466489469       0.0000000000     0.0000000000     0.0409143600
PRIMVEC 7
     3.9439985152    0.0000000000    0.0000000000
     0.0000000000    3.9439985152    0.0000000000
     0.0000000000    0.0000000000   25.5742722539
 PRIMCOORD 7
21 1
   Ba       1.9719992576     1.9719992576     6.0717669190       0.0000000000     0.0000000000    -0.0164521700
   Ba       1.9719992576     1.9719992576    13.4466087863       0.0000000000     0.0000000000     0.0205890000
    Y       1.9719992576     1.9719992576     9.7586079177       0.0000000000     0.0000000000    -0.0090936600
   Cu       0.0000000000     0.0000000000    15.5732013359       0.0000000000     0.0000000000    -0.0140428900
   Cu       0.0000000000     0.0000000000     8.0645167193       0.0000000000     0.0000000000    -0.0078400600
   Cu       0.0000000000     0.0000000000    11.4536729588       0.0000000000     0.0000000000    -0.0011917100
    O       0.0000000000     0.0000000000     5.8089704541       0.0000000000     0.0000000000     0.0393350500
    O       0.0000000000     0.0000000000    13.7154613668       0.0000000000     0.0000000000    -0.0241094400
    O       0.0000000000     0.0000000000     1.9482737880       0.0000000000     0.0000000000    -0.0716288500
    O       1.9719992576     0.0000000000     8.3255224225       0.0000000000     0.0000000000     0.0132312900
    O       1.9719992576     0.0000000000    11.1968430228       0.0000000000     0.0000000000     0.0010900100
    O       1.9719992576     0.0000000000    -0.0059067874       0.0000000000     0.0000000000    -0.0202506800
    O       1.9719992576     0.0000000000     3.9366409509       0.0000000000     0.0000000000    -0.0259682400
    O       0.0000000000     1.9719992576    -0.0059056621       0.0000000000     0.0000000000    -0.0202440200
    O       0.0000000000     1.9719992576     3.9366551957       0.0000000000     0.0000000000    -0.0259208400
    O       0.0000000000     1.9719992576     8.3350308857       0.0000000000     0.0000000000     0.0098219200
    O       0.0000000000     1.9719992576    11.1863699235       0.0000000000     0.0000000000     0.0010391500
    O       0.0000000000     1.9719992576    15.5796477404       0.0000000000     0.0000000000     0.0194805500
   Sr       1.9719992576     1.9719992576     1.9718025788       0.0000000000     0.0000000000    -0.0045596000
   Ti       0.0000000000     0.0000000000     0.0095685628       0.0000000000     0.0000000000     0.0953986500
   Ti       0.0000000000     0.0000000000     3.9477709509       0.0000000000     0.0000000000     0.0413165500
PRIMVEC 8
     3.9439985152    0.0000000000    0.0000000000
     0.0000000000    3.9439985152    0.0000000000
     0.0000000000    0.0000000000   25.5742411595
 PRIMCOORD 8
21 1
   Ba       1.9719992576     1.9719992576     6.0715622569       0.0000000000     0.0000000000    -0.0165197400
   Ba       1.9719992576     1.9719992576    13.4468276436       0.0000000000     0.0000000000     0.0208002200
    Y       1.9719992576     1.9719992576     9.7584160356       0.0000000000     0.0000000000    -0.0096673300
   Cu       0.0000000000     0.0000000000    15.5728039792       0.0000000000     0.0000000000    -0.0202836500
   Cu       0.0000000000     0.0000000000     8.0644441037       0.0000000000     0.0000000000    -0.0018815200
   Cu       0.0000000000     0.0000000000    11.4536561174       0.0000000000     0.0000000000    -0.0005472900
    O       0.0000000000     0.0000000000     5.8134294722       0.0000000000     0.0000000000     0.0351347400
    O       0.0000000000     0.0000000000    13.7129494121       0.0000000000     0.0000000000    -0.0229295800
    O       0.0000000000     0.0000000000     1.9403251189       0.0000000000     0.0000000000    -0.0640199900
    O       1.9719992576     0.0000000000     8.3268570958       0.0000000000     0.0000000000     0.0133750600
    O       1.9719992576     0.0000000000    11.1969078709       0.0000000000     0.0000000000     0.0008605600
    O       1.9719992576     0.0000000000    -0.0079561720       0.0000000000     0.0000000000    -0.0201165900
    O       1.9719992576     0.0000000000     3.9340730629       0.0000000000     0.0000000000    -0.0253460100
    O       0.0000000000     1.9719992576    -0.0079546375       0.0000000000     0.0000000000    -0.0201144300
    O       0.0000000000     1.9719992576     3.9340918600       0.0000000000     0.0000000000    -0.0253042400
    O       0.0000000000     1.9719992576     8.3360305761       0.0000000000     0.0000000000     0.0099947500
    O       0.0000000000     1.9719992576    11.1864323804       0.0000000000     0.0000000000     0.0007735700
    O       0.0000000000     1.9719992576    15.5815020855       0.0000000000     0.0000000000     0.0183675500
   Sr       1.9719992576     1.9719992576     1.9717281132       0.0000000000     0.0000000000    -0.0055966000
   Ti       0.0000000000     0.0000000000     0.0128543297       0.0000000000     0.0000000000     0.0914403900
   Ti       0.0000000000     0.0000000000     3.9490921754       0.0000000000     0.0000000000     0.0415801400
PRIMVEC 9
     3.9439985152    0.0000000000    0.0000000000
     0.0000000000    3.9439985152    0.0000000000
     0.0000000000    0.0000000000   25.5741971641
 PRIMCOORD 9
21 1
   Ba       1.9719992576     1.9719992576     6.0713266057       0.0000000000     0.0000000000    -0.0155194600
   Ba       1.9719992576     1.9719992576    13.4470749070       0.0000000000     0.0000000000     0.0199644800
    Y       1.9719992576     1.9719992576     9.7581939897       0.0000000000     0.0000000000    -0.0092169900
   Cu       0.0000000000     0.0000000000    15.5723246027       0.0000000000     0.0000000000    -0.0153961500
   Cu       0.0000000000     0.0000000000     8.0643605152       0.0000000000     0.0000000000    -0.0065515100
   Cu       0.0000000000     0.0000000000    11.4536314779       0.0000000000     0.0000000000     0.0013786500
    O       0.0000000000     0.0000000000     5.8183955452       0.0000000000     0.0000000000     0.0304489600
    O       0.0000000000     0.0000000000    13.7100976992       0.0000000000     0.0000000000    -0.0219965300
    O       0.0000000000     0.0000000000     1.9314462047       0.0000000000     0.0000000000    -0.0576742000
    O       1.9719992576     0.0000000000     8.3283816984       0.0000000000     0.0000000000     0.0125961300
    O       1.9719992576     0.0000000000    11.1969795763       0.0000000000     0.0000000000     0.0013084200
    O       1.9719992576     0.0000000000    -0.0102975528       0.0000000000     0.0000000000    -0.0197077800
    O       1.9719992576     0.0000000000     3.9311352620       0.0000000000     0.0000000000    -0.0254827100
    O       0.0000000000     1.9719992576    -0.0102955580       0.0000000000     0.0000000000    -0.0197043800
    O       0.0000000000     1.9719992576     3.9311592250       0.0000000000     0.0000000000    -0.0254447000
    O       0.0000000000     1.9719992576     8.3371711152       0.0000000000     0.0000000000     0.0092872900
    O       0.0000000000     1.9719992576    11.1865003955       0.0000000000     0.0000000000     0.0012495600
    O       0.0000000000     1.9719992576    15.5836151505       0.0000000000     0.0000000000     0.0186859900
   Sr       1.9719992576     1.9719992576     1.9716378457       0.0000000000     0.0000000000    -0.0056957700
   Ti       0.0000000000     0.0000000000     0.0165836393       0.0000000000     0.0000000000     0.0858545500
   Ti       0.0000000000     0.0000000000     3.9506130820       0.0000000000     0.0000000000     0.0416161500
PRIMVEC 10
     3.9439985152    0.0000000000    0.0000000000
     0.0000000000    3.9439985152    0.0000000000
     0.0000000000    0.0000000000   25.5741506683
 PRIMCOORD 10
21 1
   Ba       1.9719992576     1.9719992576     6.0710640969       0.0000000000     0.0000000000    -0.0155160800
   Ba       1.9719992576     1.9719992576    13.4473546126       0.0000000000     0.0000000000     0.0199260500
    Y       1.9719992576     1.9719992576     9.7579468996       0.0000000000     0.0000000000    -0.0094643700
   Cu       0.0000000000     0.0000000000    15.5717874678       0.0000000000     0.0000000000    -0.0183950800
   Cu       0.0000000000     0.0000000000     8.0642522266       0.0000000000     0.0000000000    -0.0032839300
   Cu       0.0000000000     0.0000000000    11.4536143625       0.0000000000     0.0000000000     0.0020083000
    O       0.0000000000     0.0000000000     5.8238030553       0.0000000000     0.0000000000     0.0250609500
    O       0.0000000000     0.0000000000    13.7069253624       0.0000000000     0.0000000000    -0.0204205100
    O       0.0000000000     0.0000000000     1.9217299632       0.0000000000     0.0000000000    -0.0471308400
    O       1.9719992576     0.0000000000     8.3300883109       0.0000000000     0.0000000000     0.0123560600
    O       1.9719992576     0.0000000000    11.1970691882       0.0000000000     0.0000000000     0.0010827000
    O       1.9719992576     0.0000000000    -0.0129249967       0.0000000000     0.0000000000    -0.0193315100
    O       1.9719992576     0.0000000000     3.9278272081       0.0000000000     0.0000000000    -0.0246853500
    O       0.0000000000     1.9719992576    -0.0129225160       0.0000000000     0.0000000000    -0.0193297400
    O       0.0000000000     1.9719992576     3.9278568741       0.0000000000     0.0000000000    -0.0246697600
    O       0.0000000000     1.9719992576     8.3384456620       0.0000000000     0.0000000000     0.0091016600
    O       0.0000000000     1.9719992576    11.1865854487       0.0000000000     0.0000000000     0.0010249100
    O       0.0000000000     1.9719992576    15.5859979492       0.0000000000     0.0000000000     0.0175855100
   Sr       1.9719992576     1.9719992576     1.9715322970       0.0000000000     0.0000000000    -0.0070310800
   Ti       0.0000000000     0.0000000000     0.0207293580       0.0000000000     0.0000000000     0.0798979000
   Ti       0.0000000000     0.0000000000     3.9523354537       0.0000000000     0.0000000000     0.0412142400
PRIMVEC 11
     3.9439985152    0.0000000000    0.0000000000
     0.0000000000    3.9439985152    0.0000000000
     0.0000000000    0.0000000000   25.5740932201
 PRIMCOORD 11
21 1
   Ba       1.9719992576     1.9719992576     6.0707727501       0.0000000000     0.0000000000    -0.0134389800
   Ba       1.9719992576     1.9719992576    13.4476622390       0.0000000000     0.0000000000     0.0203188500
    Y       1.9719992576     1.9719992576     9.7576709013       0.0000000000     0.0000000000    -0.0075169900
   Cu       0.0000000000     0.0000000000    15.5711764318       0.0000000000     0.0000000000    -0.0181087800
   Cu       0.0000000000     0.0000000000     8.0641284650       0.0000000000     0.0000000000    -0.0086595400
   Cu       0.0000000000     0.0000000000    11.4535996563       0.0000000000     0.0000000000    -0.0031353100
    O       0.0000000000     0.0000000000     5.8295717896       0.0000000000     0.0000000000     0.0201768900
    O       0.0000000000     0.0000000000    13.7034507390       0.0000000000     0.0000000000    -0.0193321200
    O       0.0000000000     0.0000000000     1.9113287545       0.0000000000     0.0000000000    -0.0371262300
    O       1.9719992576     0.0000000000     8.3319707256       0.0000000000     0.0000000000     0.0118589700
    O       1.9719992576     0.0000000000    11.1971697068       0.0000000000     0.0000000000     0.0014238400
    O       1.9719992576     0.0000000000    -0.0158330234       0.0000000000     0.0000000000    -0.0174129500
    O       1.9719992576     0.0000000000     3.9241591413       0.0000000000     0.0000000000    -0.0232631700
    O       0.0000000000     1.9719992576    -0.0158300568       0.0000000000     0.0000000000    -0.0174141400
    O       0.0000000000     1.9719992576     3.9241947660       0.0000000000     0.0000000000    -0.0232420100
    O       0.0000000000     1.9719992576     8.3398487228       0.0000000000     0.0000000000     0.0086709800
    O       0.0000000000     1.9719992576    11.1866806204       0.0000000000     0.0000000000     0.0013509800
    O       0.0000000000     1.9719992576    15.5886293183       0.0000000000     0.0000000000     0.0181400200
   Sr       1.9719992576     1.9719992576     1.9714072608       0.0000000000     0.0000000000    -0.0077495300
   Ti       0.0000000000     0.0000000000     0.0252626008       0.0000000000     0.0000000000     0.0725075500
   Ti       0.0000000000     0.0000000000     3.9542560385       0.0000000000     0.0000000000     0.0419516700
PRIMVEC 12
     3.9439985152    0.0000000000    0.0000000000
     0.0000000000    3.9439985152    0.0000000000
     0.0000000000    0.0000000000   25.5740291616
 PRIMCOORD 12
21 1
   Ba       1.9719992576     1.9719992576     6.0704571259       0.0000000000     0.0000000000    -0.0134557200
   Ba       1.9719992576     1.9719992576    13.4480007595       0.0000000000     0.0000000000     0.0206857000
    Y       1.9719992576     1.9719992576     9.7573727669       0.0000000000     0.0000000000    -0.0078874400
   Cu       0.0000000000     0.0000000000    15.5704951883       0.0000000000     0.0000000000    -0.0245161100
   Cu       0.0000000000     0.0000000000     8.0639709844       0.0000000000     0.0000000000    -0.0025208300
   Cu       0.0000000000     0.0000000000    11.4535621185       0.0000000000     0.0000000000    -0.0041407900
    O       0.0000000000     0.0000000000     5.8356319402       0.0000000000     0.0000000000     0.0153188900
    O       0.0000000000     0.0000000000    13.6996919407       0.0000000000     0.0000000000    -0.0176451100
    O       0.0000000000     0.0000000000     1.9003881540       0.0000000000     0.0000000000    -0.0246129700
    O       1.9719992576     0.0000000000     8.3340231165       0.0000000000     0.0000000000     0.0120291900
    O       1.9719992576     0.0000000000    11.1972880201       0.0000000000     0.0000000000     0.0012006300
    O       1.9719992576     0.0000000000    -0.0189938059       0.0000000000     0.0000000000    -0.0166999500
    O       1.9719992576     0.0000000000     3.9201523981       0.0000000000     0.0000000000    -0.0220745800
    O       0.0000000000     1.9719992576    -0.0189903534       0.0000000000     0.0000000000    -0.0166982900
    O       0.0000000000     1.9719992576     3.9201942628       0.0000000000     0.0000000000    -0.0220596000
    O       0.0000000000     1.9719992576     8.3413755221       0.0000000000     0.0000000000     0.0089035200
    O       0.0000000000     1.9719992576    11.1867924897       0.0000000000     0.0000000000     0.0010362400